n -t * -s 0  -x 0 -y 0 -Z 0 -z 30  -v circle -c black
n -t * -s 1  -x 784009.99758299999 -y 0 -Z 0 -z 30  -v circle -c black
V -t * -v 1.0a5 -a 0
W -t * -x 784009.997583 -y 400
A -t * -n 1 -p 0 -o 0xffffffff -c 31 -a 1
A -t * -h 1 -m 2147483647 -s 0
+ -t 0.000000000 -s 0 -d -1 -p tcp -e 40 -c 2 -a 0 -i 0 -k AGT 
- -t 0.000000000 -s 0 -d -1 -p tcp -e 40 -c 2 -a 0 -i 0 -k AGT
h -t 0.000000000 -s 0 -d -1 -p tcp -e 40 -c 2 -a 0 -i 0 -k AGT
+ -t 0.029290548 -s 1 -d -1 -p message -e 32 -c 2 -a 0 -i 1 -k RTR 
- -t 0.029290548 -s 1 -d -1 -p message -e 32 -c 2 -a 0 -i 1 -k RTR
h -t 0.029290548 -s 1 -d -1 -p message -e 32 -c 2 -a 0 -i 1 -k RTR
r -t 0.032675915 -s 0 -d -1 -p message -e 32 -c 2 -a 0 -i 1 -k RTR
+ -t 0.032675915 -s 0 -d 1 -p tcp -e 80 -c 2 -a 0 -i 0 -k RTR 
- -t 0.032675915 -s 0 -d 1 -p tcp -e 80 -c 2 -a 0 -i 0 -k RTR
h -t 0.032675915 -s 0 -d 1 -p tcp -e 80 -c 2 -a 0 -i 0 -k RTR
r -t 0.042548015 -s 1 -d 1 -p tcp -e 80 -c 2 -a 0 -i 0 -k AGT
+ -t 0.042548015 -s 1 -d -1 -p ack -e 40 -c 2 -a 0 -i 2 -k AGT 
- -t 0.042548015 -s 1 -d -1 -p ack -e 40 -c 2 -a 0 -i 2 -k AGT
h -t 0.042548015 -s 1 -d -1 -p ack -e 40 -c 2 -a 0 -i 2 -k AGT
+ -t 1.118150083 -s 0 -d -1 -p message -e 44 -c 2 -a 0 -i 3 -k RTR 
- -t 1.118150083 -s 0 -d -1 -p message -e 44 -c 2 -a 0 -i 3 -k RTR
h -t 1.118150083 -s 0 -d -1 -p message -e 44 -c 2 -a 0 -i 3 -k RTR
r -t 1.121871450 -s 1 -d -1 -p message -e 44 -c 2 -a 0 -i 3 -k RTR
+ -t 1.121871450 -s 1 -d 0 -p ack -e 80 -c 2 -a 0 -i 2 -k RTR 
- -t 1.121871450 -s 1 -d 0 -p ack -e 80 -c 2 -a 0 -i 2 -k RTR
h -t 1.121871450 -s 1 -d 0 -p ack -e 80 -c 2 -a 0 -i 2 -k RTR
r -t 1.132083550 -s 0 -d 0 -p ack -e 80 -c 2 -a 0 -i 2 -k AGT
+ -t 1.132083550 -s 0 -d -1 -p tcp -e 1040 -c 2 -a 0 -i 4 -k AGT 
- -t 1.132083550 -s 0 -d -1 -p tcp -e 1040 -c 2 -a 0 -i 4 -k AGT
h -t 1.132083550 -s 0 -d -1 -p tcp -e 1040 -c 2 -a 0 -i 4 -k AGT
+ -t 1.132083550 -s 0 -d 1 -p tcp -e 1060 -c 2 -a 0 -i 4 -k RTR 
- -t 1.132083550 -s 0 -d 1 -p tcp -e 1060 -c 2 -a 0 -i 4 -k RTR
h -t 1.132083550 -s 0 -d 1 -p tcp -e 1060 -c 2 -a 0 -i 4 -k RTR
+ -t 1.132083550 -s 0 -d -1 -p tcp -e 1040 -c 2 -a 0 -i 5 -k AGT 
- -t 1.132083550 -s 0 -d -1 -p tcp -e 1040 -c 2 -a 0 -i 5 -k AGT
h -t 1.132083550 -s 0 -d -1 -p tcp -e 1040 -c 2 -a 0 -i 5 -k AGT
+ -t 1.132083550 -s 0 -d 1 -p tcp -e 1060 -c 2 -a 0 -i 5 -k RTR 
- -t 1.132083550 -s 0 -d 1 -p tcp -e 1060 -c 2 -a 0 -i 5 -k RTR
h -t 1.132083550 -s 0 -d 1 -p tcp -e 1060 -c 2 -a 0 -i 5 -k RTR
r -t 1.150019650 -s 1 -d 1 -p tcp -e 1060 -c 2 -a 0 -i 4 -k AGT
+ -t 1.150019650 -s 1 -d -1 -p ack -e 40 -c 2 -a 0 -i 6 -k AGT 
- -t 1.150019650 -s 1 -d -1 -p ack -e 40 -c 2 -a 0 -i 6 -k AGT
h -t 1.150019650 -s 1 -d -1 -p ack -e 40 -c 2 -a 0 -i 6 -k AGT
+ -t 1.150019650 -s 1 -d 0 -p ack -e 60 -c 2 -a 0 -i 6 -k RTR 
- -t 1.150019650 -s 1 -d 0 -p ack -e 60 -c 2 -a 0 -i 6 -k RTR
h -t 1.150019650 -s 1 -d 0 -p ack -e 60 -c 2 -a 0 -i 6 -k RTR
r -t 1.160015750 -s 0 -d 0 -p ack -e 60 -c 2 -a 0 -i 6 -k AGT
+ -t 1.160015750 -s 0 -d -1 -p tcp -e 1040 -c 2 -a 0 -i 7 -k AGT 
- -t 1.160015750 -s 0 -d -1 -p tcp -e 1040 -c 2 -a 0 -i 7 -k AGT
h -t 1.160015750 -s 0 -d -1 -p tcp -e 1040 -c 2 -a 0 -i 7 -k AGT
+ -t 1.160015750 -s 0 -d 1 -p tcp -e 1060 -c 2 -a 0 -i 7 -k RTR 
- -t 1.160015750 -s 0 -d 1 -p tcp -e 1060 -c 2 -a 0 -i 7 -k RTR
h -t 1.160015750 -s 0 -d 1 -p tcp -e 1060 -c 2 -a 0 -i 7 -k RTR
+ -t 1.160015750 -s 0 -d -1 -p tcp -e 1040 -c 2 -a 0 -i 8 -k AGT 
- -t 1.160015750 -s 0 -d -1 -p tcp -e 1040 -c 2 -a 0 -i 8 -k AGT
h -t 1.160015750 -s 0 -d -1 -p tcp -e 1040 -c 2 -a 0 -i 8 -k AGT
+ -t 1.160015750 -s 0 -d 1 -p tcp -e 1060 -c 2 -a 0 -i 8 -k RTR 
- -t 1.160015750 -s 0 -d 1 -p tcp -e 1060 -c 2 -a 0 -i 8 -k RTR
h -t 1.160015750 -s 0 -d 1 -p tcp -e 1060 -c 2 -a 0 -i 8 -k RTR
r -t 1.177831850 -s 1 -d 1 -p tcp -e 1060 -c 2 -a 0 -i 5 -k AGT
+ -t 1.177831850 -s 1 -d -1 -p ack -e 40 -c 2 -a 0 -i 9 -k AGT 
- -t 1.177831850 -s 1 -d -1 -p ack -e 40 -c 2 -a 0 -i 9 -k AGT
h -t 1.177831850 -s 1 -d -1 -p ack -e 40 -c 2 -a 0 -i 9 -k AGT
+ -t 1.177831850 -s 1 -d 0 -p ack -e 60 -c 2 -a 0 -i 9 -k RTR 
- -t 1.177831850 -s 1 -d 0 -p ack -e 60 -c 2 -a 0 -i 9 -k RTR
h -t 1.177831850 -s 1 -d 0 -p ack -e 60 -c 2 -a 0 -i 9 -k RTR
r -t 1.187747950 -s 0 -d 0 -p ack -e 60 -c 2 -a 0 -i 9 -k AGT
+ -t 1.187747950 -s 0 -d -1 -p tcp -e 1040 -c 2 -a 0 -i 10 -k AGT 
- -t 1.187747950 -s 0 -d -1 -p tcp -e 1040 -c 2 -a 0 -i 10 -k AGT
h -t 1.187747950 -s 0 -d -1 -p tcp -e 1040 -c 2 -a 0 -i 10 -k AGT
+ -t 1.187747950 -s 0 -d 1 -p tcp -e 1060 -c 2 -a 0 -i 10 -k RTR 
- -t 1.187747950 -s 0 -d 1 -p tcp -e 1060 -c 2 -a 0 -i 10 -k RTR
h -t 1.187747950 -s 0 -d 1 -p tcp -e 1060 -c 2 -a 0 -i 10 -k RTR
+ -t 1.187747950 -s 0 -d -1 -p tcp -e 1040 -c 2 -a 0 -i 11 -k AGT 
- -t 1.187747950 -s 0 -d -1 -p tcp -e 1040 -c 2 -a 0 -i 11 -k AGT
h -t 1.187747950 -s 0 -d -1 -p tcp -e 1040 -c 2 -a 0 -i 11 -k AGT
+ -t 1.187747950 -s 0 -d 1 -p tcp -e 1060 -c 2 -a 0 -i 11 -k RTR 
- -t 1.187747950 -s 0 -d 1 -p tcp -e 1060 -c 2 -a 0 -i 11 -k RTR
h -t 1.187747950 -s 0 -d 1 -p tcp -e 1060 -c 2 -a 0 -i 11 -k RTR
r -t 1.205884050 -s 1 -d 1 -p tcp -e 1060 -c 2 -a 0 -i 7 -k AGT
+ -t 1.205884050 -s 1 -d -1 -p ack -e 40 -c 2 -a 0 -i 12 -k AGT 
- -t 1.205884050 -s 1 -d -1 -p ack -e 40 -c 2 -a 0 -i 12 -k AGT
h -t 1.205884050 -s 1 -d -1 -p ack -e 40 -c 2 -a 0 -i 12 -k AGT
+ -t 1.205884050 -s 1 -d 0 -p ack -e 60 -c 2 -a 0 -i 12 -k RTR 
- -t 1.205884050 -s 1 -d 0 -p ack -e 60 -c 2 -a 0 -i 12 -k RTR
h -t 1.205884050 -s 1 -d 0 -p ack -e 60 -c 2 -a 0 -i 12 -k RTR
r -t 1.299532150 -s 0 -d 0 -p ack -e 60 -c 2 -a 0 -i 12 -k AGT
+ -t 1.299532150 -s 0 -d -1 -p tcp -e 1040 -c 2 -a 0 -i 13 -k AGT 
- -t 1.299532150 -s 0 -d -1 -p tcp -e 1040 -c 2 -a 0 -i 13 -k AGT
h -t 1.299532150 -s 0 -d -1 -p tcp -e 1040 -c 2 -a 0 -i 13 -k AGT
+ -t 1.299532150 -s 0 -d 1 -p tcp -e 1060 -c 2 -a 0 -i 13 -k RTR 
- -t 1.299532150 -s 0 -d 1 -p tcp -e 1060 -c 2 -a 0 -i 13 -k RTR
h -t 1.299532150 -s 0 -d 1 -p tcp -e 1060 -c 2 -a 0 -i 13 -k RTR
+ -t 1.299532150 -s 0 -d -1 -p tcp -e 1040 -c 2 -a 0 -i 14 -k AGT 
- -t 1.299532150 -s 0 -d -1 -p tcp -e 1040 -c 2 -a 0 -i 14 -k AGT
h -t 1.299532150 -s 0 -d -1 -p tcp -e 1040 -c 2 -a 0 -i 14 -k AGT
+ -t 1.299532150 -s 0 -d 1 -p tcp -e 1060 -c 2 -a 0 -i 14 -k RTR 
- -t 1.299532150 -s 0 -d 1 -p tcp -e 1060 -c 2 -a 0 -i 14 -k RTR
h -t 1.299532150 -s 0 -d 1 -p tcp -e 1060 -c 2 -a 0 -i 14 -k RTR
r -t 1.317508250 -s 1 -d 1 -p tcp -e 1060 -c 2 -a 0 -i 8 -k AGT
+ -t 1.317508250 -s 1 -d -1 -p ack -e 40 -c 2 -a 0 -i 15 -k AGT 
- -t 1.317508250 -s 1 -d -1 -p ack -e 40 -c 2 -a 0 -i 15 -k AGT
h -t 1.317508250 -s 1 -d -1 -p ack -e 40 -c 2 -a 0 -i 15 -k AGT
+ -t 1.317508250 -s 1 -d 0 -p ack -e 60 -c 2 -a 0 -i 15 -k RTR 
- -t 1.317508250 -s 1 -d 0 -p ack -e 60 -c 2 -a 0 -i 15 -k RTR
h -t 1.317508250 -s 1 -d 0 -p ack -e 60 -c 2 -a 0 -i 15 -k RTR
r -t 1.501528350 -s 0 -d 0 -p ack -e 60 -c 2 -a 0 -i 15 -k AGT
+ -t 1.501528350 -s 0 -d -1 -p tcp -e 1040 -c 2 -a 0 -i 16 -k AGT 
- -t 1.501528350 -s 0 -d -1 -p tcp -e 1040 -c 2 -a 0 -i 16 -k AGT
h -t 1.501528350 -s 0 -d -1 -p tcp -e 1040 -c 2 -a 0 -i 16 -k AGT
+ -t 1.501528350 -s 0 -d 1 -p tcp -e 1060 -c 2 -a 0 -i 16 -k RTR 
- -t 1.501528350 -s 0 -d 1 -p tcp -e 1060 -c 2 -a 0 -i 16 -k RTR
h -t 1.501528350 -s 0 -d 1 -p tcp -e 1060 -c 2 -a 0 -i 16 -k RTR
+ -t 1.501528350 -s 0 -d -1 -p tcp -e 1040 -c 2 -a 0 -i 17 -k AGT 
- -t 1.501528350 -s 0 -d -1 -p tcp -e 1040 -c 2 -a 0 -i 17 -k AGT
h -t 1.501528350 -s 0 -d -1 -p tcp -e 1040 -c 2 -a 0 -i 17 -k AGT
+ -t 1.501528350 -s 0 -d 1 -p tcp -e 1060 -c 2 -a 0 -i 17 -k RTR 
- -t 1.501528350 -s 0 -d 1 -p tcp -e 1060 -c 2 -a 0 -i 17 -k RTR
h -t 1.501528350 -s 0 -d 1 -p tcp -e 1060 -c 2 -a 0 -i 17 -k RTR
r -t 1.519504450 -s 1 -d 1 -p tcp -e 1060 -c 2 -a 0 -i 10 -k AGT
+ -t 1.519504450 -s 1 -d -1 -p ack -e 40 -c 2 -a 0 -i 18 -k AGT 
- -t 1.519504450 -s 1 -d -1 -p ack -e 40 -c 2 -a 0 -i 18 -k AGT
h -t 1.519504450 -s 1 -d -1 -p ack -e 40 -c 2 -a 0 -i 18 -k AGT
+ -t 1.519504450 -s 1 -d 0 -p ack -e 60 -c 2 -a 0 -i 18 -k RTR 
- -t 1.519504450 -s 1 -d 0 -p ack -e 60 -c 2 -a 0 -i 18 -k RTR
h -t 1.519504450 -s 1 -d 0 -p ack -e 60 -c 2 -a 0 -i 18 -k RTR
r -t 1.529300550 -s 0 -d 0 -p ack -e 60 -c 2 -a 0 -i 18 -k AGT
+ -t 1.529300550 -s 0 -d -1 -p tcp -e 1040 -c 2 -a 0 -i 19 -k AGT 
- -t 1.529300550 -s 0 -d -1 -p tcp -e 1040 -c 2 -a 0 -i 19 -k AGT
h -t 1.529300550 -s 0 -d -1 -p tcp -e 1040 -c 2 -a 0 -i 19 -k AGT
+ -t 1.529300550 -s 0 -d 1 -p tcp -e 1060 -c 2 -a 0 -i 19 -k RTR 
- -t 1.529300550 -s 0 -d 1 -p tcp -e 1060 -c 2 -a 0 -i 19 -k RTR
h -t 1.529300550 -s 0 -d 1 -p tcp -e 1060 -c 2 -a 0 -i 19 -k RTR
+ -t 1.529300550 -s 0 -d -1 -p tcp -e 1040 -c 2 -a 0 -i 20 -k AGT 
- -t 1.529300550 -s 0 -d -1 -p tcp -e 1040 -c 2 -a 0 -i 20 -k AGT
h -t 1.529300550 -s 0 -d -1 -p tcp -e 1040 -c 2 -a 0 -i 20 -k AGT
+ -t 1.529300550 -s 0 -d 1 -p tcp -e 1060 -c 2 -a 0 -i 20 -k RTR 
- -t 1.529300550 -s 0 -d 1 -p tcp -e 1060 -c 2 -a 0 -i 20 -k RTR
h -t 1.529300550 -s 0 -d 1 -p tcp -e 1060 -c 2 -a 0 -i 20 -k RTR
r -t 1.547176650 -s 1 -d 1 -p tcp -e 1060 -c 2 -a 0 -i 11 -k AGT
+ -t 1.547176650 -s 1 -d -1 -p ack -e 40 -c 2 -a 0 -i 21 -k AGT 
- -t 1.547176650 -s 1 -d -1 -p ack -e 40 -c 2 -a 0 -i 21 -k AGT
h -t 1.547176650 -s 1 -d -1 -p ack -e 40 -c 2 -a 0 -i 21 -k AGT
+ -t 1.547176650 -s 1 -d 0 -p ack -e 60 -c 2 -a 0 -i 21 -k RTR 
- -t 1.547176650 -s 1 -d 0 -p ack -e 60 -c 2 -a 0 -i 21 -k RTR
h -t 1.547176650 -s 1 -d 0 -p ack -e 60 -c 2 -a 0 -i 21 -k RTR
r -t 1.782392750 -s 0 -d 0 -p ack -e 60 -c 2 -a 0 -i 21 -k AGT
+ -t 1.782392750 -s 0 -d -1 -p tcp -e 1040 -c 2 -a 0 -i 22 -k AGT 
- -t 1.782392750 -s 0 -d -1 -p tcp -e 1040 -c 2 -a 0 -i 22 -k AGT
h -t 1.782392750 -s 0 -d -1 -p tcp -e 1040 -c 2 -a 0 -i 22 -k AGT
+ -t 1.782392750 -s 0 -d 1 -p tcp -e 1060 -c 2 -a 0 -i 22 -k RTR 
- -t 1.782392750 -s 0 -d 1 -p tcp -e 1060 -c 2 -a 0 -i 22 -k RTR
h -t 1.782392750 -s 0 -d 1 -p tcp -e 1060 -c 2 -a 0 -i 22 -k RTR
+ -t 1.782392750 -s 0 -d -1 -p tcp -e 1040 -c 2 -a 0 -i 23 -k AGT 
- -t 1.782392750 -s 0 -d -1 -p tcp -e 1040 -c 2 -a 0 -i 23 -k AGT
h -t 1.782392750 -s 0 -d -1 -p tcp -e 1040 -c 2 -a 0 -i 23 -k AGT
+ -t 1.782392750 -s 0 -d 1 -p tcp -e 1060 -c 2 -a 0 -i 23 -k RTR 
- -t 1.782392750 -s 0 -d 1 -p tcp -e 1060 -c 2 -a 0 -i 23 -k RTR
h -t 1.782392750 -s 0 -d 1 -p tcp -e 1060 -c 2 -a 0 -i 23 -k RTR
r -t 1.807768850 -s 1 -d 1 -p tcp -e 1060 -c 2 -a 0 -i 13 -k AGT
+ -t 1.807768850 -s 1 -d -1 -p ack -e 40 -c 2 -a 0 -i 24 -k AGT 
- -t 1.807768850 -s 1 -d -1 -p ack -e 40 -c 2 -a 0 -i 24 -k AGT
h -t 1.807768850 -s 1 -d -1 -p ack -e 40 -c 2 -a 0 -i 24 -k AGT
+ -t 1.807768850 -s 1 -d 0 -p ack -e 60 -c 2 -a 0 -i 24 -k RTR 
- -t 1.807768850 -s 1 -d 0 -p ack -e 60 -c 2 -a 0 -i 24 -k RTR
h -t 1.807768850 -s 1 -d 0 -p ack -e 60 -c 2 -a 0 -i 24 -k RTR
r -t 1.817764950 -s 0 -d 0 -p ack -e 60 -c 2 -a 0 -i 24 -k AGT
+ -t 1.817764950 -s 0 -d -1 -p tcp -e 1040 -c 2 -a 0 -i 25 -k AGT 
- -t 1.817764950 -s 0 -d -1 -p tcp -e 1040 -c 2 -a 0 -i 25 -k AGT
h -t 1.817764950 -s 0 -d -1 -p tcp -e 1040 -c 2 -a 0 -i 25 -k AGT
+ -t 1.817764950 -s 0 -d 1 -p tcp -e 1060 -c 2 -a 0 -i 25 -k RTR 
- -t 1.817764950 -s 0 -d 1 -p tcp -e 1060 -c 2 -a 0 -i 25 -k RTR
h -t 1.817764950 -s 0 -d 1 -p tcp -e 1060 -c 2 -a 0 -i 25 -k RTR
+ -t 1.817764950 -s 0 -d -1 -p tcp -e 1040 -c 2 -a 0 -i 26 -k AGT 
- -t 1.817764950 -s 0 -d -1 -p tcp -e 1040 -c 2 -a 0 -i 26 -k AGT
h -t 1.817764950 -s 0 -d -1 -p tcp -e 1040 -c 2 -a 0 -i 26 -k AGT
+ -t 1.817764950 -s 0 -d 1 -p tcp -e 1060 -c 2 -a 0 -i 26 -k RTR 
- -t 1.817764950 -s 0 -d 1 -p tcp -e 1060 -c 2 -a 0 -i 26 -k RTR
h -t 1.817764950 -s 0 -d 1 -p tcp -e 1060 -c 2 -a 0 -i 26 -k RTR
r -t 1.835661050 -s 1 -d 1 -p tcp -e 1060 -c 2 -a 0 -i 14 -k AGT
+ -t 1.835661050 -s 1 -d -1 -p ack -e 40 -c 2 -a 0 -i 27 -k AGT 
- -t 1.835661050 -s 1 -d -1 -p ack -e 40 -c 2 -a 0 -i 27 -k AGT
h -t 1.835661050 -s 1 -d -1 -p ack -e 40 -c 2 -a 0 -i 27 -k AGT
+ -t 1.835661050 -s 1 -d 0 -p ack -e 60 -c 2 -a 0 -i 27 -k RTR 
- -t 1.835661050 -s 1 -d 0 -p ack -e 60 -c 2 -a 0 -i 27 -k RTR
h -t 1.835661050 -s 1 -d 0 -p ack -e 60 -c 2 -a 0 -i 27 -k RTR
r -t 1.845497150 -s 0 -d 0 -p ack -e 60 -c 2 -a 0 -i 27 -k AGT
+ -t 1.845497150 -s 0 -d -1 -p tcp -e 1040 -c 2 -a 0 -i 28 -k AGT 
- -t 1.845497150 -s 0 -d -1 -p tcp -e 1040 -c 2 -a 0 -i 28 -k AGT
h -t 1.845497150 -s 0 -d -1 -p tcp -e 1040 -c 2 -a 0 -i 28 -k AGT
+ -t 1.845497150 -s 0 -d 1 -p tcp -e 1060 -c 2 -a 0 -i 28 -k RTR 
- -t 1.845497150 -s 0 -d 1 -p tcp -e 1060 -c 2 -a 0 -i 28 -k RTR
h -t 1.845497150 -s 0 -d 1 -p tcp -e 1060 -c 2 -a 0 -i 28 -k RTR
+ -t 1.845497150 -s 0 -d -1 -p tcp -e 1040 -c 2 -a 0 -i 29 -k AGT 
- -t 1.845497150 -s 0 -d -1 -p tcp -e 1040 -c 2 -a 0 -i 29 -k AGT
h -t 1.845497150 -s 0 -d -1 -p tcp -e 1040 -c 2 -a 0 -i 29 -k AGT
+ -t 1.845497150 -s 0 -d 1 -p tcp -e 1060 -c 2 -a 0 -i 29 -k RTR 
- -t 1.845497150 -s 0 -d 1 -p tcp -e 1060 -c 2 -a 0 -i 29 -k RTR
h -t 1.845497150 -s 0 -d 1 -p tcp -e 1060 -c 2 -a 0 -i 29 -k RTR
r -t 1.863453250 -s 1 -d 1 -p tcp -e 1060 -c 2 -a 0 -i 16 -k AGT
+ -t 1.863453250 -s 1 -d -1 -p ack -e 40 -c 2 -a 0 -i 30 -k AGT 
- -t 1.863453250 -s 1 -d -1 -p ack -e 40 -c 2 -a 0 -i 30 -k AGT
h -t 1.863453250 -s 1 -d -1 -p ack -e 40 -c 2 -a 0 -i 30 -k AGT
+ -t 1.863453250 -s 1 -d 0 -p ack -e 60 -c 2 -a 0 -i 30 -k RTR 
- -t 1.863453250 -s 1 -d 0 -p ack -e 60 -c 2 -a 0 -i 30 -k RTR
h -t 1.863453250 -s 1 -d 0 -p ack -e 60 -c 2 -a 0 -i 30 -k RTR
r -t 1.956741350 -s 0 -d 0 -p ack -e 60 -c 2 -a 0 -i 30 -k AGT
+ -t 1.956741350 -s 0 -d -1 -p tcp -e 1040 -c 2 -a 0 -i 31 -k AGT 
- -t 1.956741350 -s 0 -d -1 -p tcp -e 1040 -c 2 -a 0 -i 31 -k AGT
h -t 1.956741350 -s 0 -d -1 -p tcp -e 1040 -c 2 -a 0 -i 31 -k AGT
+ -t 1.956741350 -s 0 -d 1 -p tcp -e 1060 -c 2 -a 0 -i 31 -k RTR 
- -t 1.956741350 -s 0 -d 1 -p tcp -e 1060 -c 2 -a 0 -i 31 -k RTR
h -t 1.956741350 -s 0 -d 1 -p tcp -e 1060 -c 2 -a 0 -i 31 -k RTR
+ -t 1.956741350 -s 0 -d -1 -p tcp -e 1040 -c 2 -a 0 -i 32 -k AGT 
- -t 1.956741350 -s 0 -d -1 -p tcp -e 1040 -c 2 -a 0 -i 32 -k AGT
h -t 1.956741350 -s 0 -d -1 -p tcp -e 1040 -c 2 -a 0 -i 32 -k AGT
+ -t 1.956741350 -s 0 -d 1 -p tcp -e 1060 -c 2 -a 0 -i 32 -k RTR 
- -t 1.956741350 -s 0 -d 1 -p tcp -e 1060 -c 2 -a 0 -i 32 -k RTR
h -t 1.956741350 -s 0 -d 1 -p tcp -e 1060 -c 2 -a 0 -i 32 -k RTR
r -t 1.974877450 -s 1 -d 1 -p tcp -e 1060 -c 2 -a 0 -i 17 -k AGT
+ -t 1.974877450 -s 1 -d -1 -p ack -e 40 -c 2 -a 0 -i 33 -k AGT 
- -t 1.974877450 -s 1 -d -1 -p ack -e 40 -c 2 -a 0 -i 33 -k AGT
h -t 1.974877450 -s 1 -d -1 -p ack -e 40 -c 2 -a 0 -i 33 -k AGT
+ -t 1.974877450 -s 1 -d 0 -p ack -e 60 -c 2 -a 0 -i 33 -k RTR 
- -t 1.974877450 -s 1 -d 0 -p ack -e 60 -c 2 -a 0 -i 33 -k RTR
h -t 1.974877450 -s 1 -d 0 -p ack -e 60 -c 2 -a 0 -i 33 -k RTR
r -t 1.984793550 -s 0 -d 0 -p ack -e 60 -c 2 -a 0 -i 33 -k AGT
+ -t 1.984793550 -s 0 -d -1 -p tcp -e 1040 -c 2 -a 0 -i 34 -k AGT 
- -t 1.984793550 -s 0 -d -1 -p tcp -e 1040 -c 2 -a 0 -i 34 -k AGT
h -t 1.984793550 -s 0 -d -1 -p tcp -e 1040 -c 2 -a 0 -i 34 -k AGT
+ -t 1.984793550 -s 0 -d 1 -p tcp -e 1060 -c 2 -a 0 -i 34 -k RTR 
- -t 1.984793550 -s 0 -d 1 -p tcp -e 1060 -c 2 -a 0 -i 34 -k RTR
h -t 1.984793550 -s 0 -d 1 -p tcp -e 1060 -c 2 -a 0 -i 34 -k RTR
+ -t 1.984793550 -s 0 -d -1 -p tcp -e 1040 -c 2 -a 0 -i 35 -k AGT 
- -t 1.984793550 -s 0 -d -1 -p tcp -e 1040 -c 2 -a 0 -i 35 -k AGT
h -t 1.984793550 -s 0 -d -1 -p tcp -e 1040 -c 2 -a 0 -i 35 -k AGT
+ -t 1.984793550 -s 0 -d 1 -p tcp -e 1060 -c 2 -a 0 -i 35 -k RTR 
- -t 1.984793550 -s 0 -d 1 -p tcp -e 1060 -c 2 -a 0 -i 35 -k RTR
h -t 1.984793550 -s 0 -d 1 -p tcp -e 1060 -c 2 -a 0 -i 35 -k RTR
r -t 2.002689650 -s 1 -d 1 -p tcp -e 1060 -c 2 -a 0 -i 19 -k AGT
+ -t 2.002689650 -s 1 -d -1 -p ack -e 40 -c 2 -a 0 -i 36 -k AGT 
- -t 2.002689650 -s 1 -d -1 -p ack -e 40 -c 2 -a 0 -i 36 -k AGT
h -t 2.002689650 -s 1 -d -1 -p ack -e 40 -c 2 -a 0 -i 36 -k AGT
+ -t 2.002689650 -s 1 -d 0 -p ack -e 60 -c 2 -a 0 -i 36 -k RTR 
- -t 2.002689650 -s 1 -d 0 -p ack -e 60 -c 2 -a 0 -i 36 -k RTR
h -t 2.002689650 -s 1 -d 0 -p ack -e 60 -c 2 -a 0 -i 36 -k RTR
r -t 2.012485750 -s 0 -d 0 -p ack -e 60 -c 2 -a 0 -i 36 -k AGT
+ -t 2.012485750 -s 0 -d -1 -p tcp -e 1040 -c 2 -a 0 -i 37 -k AGT 
- -t 2.012485750 -s 0 -d -1 -p tcp -e 1040 -c 2 -a 0 -i 37 -k AGT
h -t 2.012485750 -s 0 -d -1 -p tcp -e 1040 -c 2 -a 0 -i 37 -k AGT
+ -t 2.012485750 -s 0 -d 1 -p tcp -e 1060 -c 2 -a 0 -i 37 -k RTR 
- -t 2.012485750 -s 0 -d 1 -p tcp -e 1060 -c 2 -a 0 -i 37 -k RTR
h -t 2.012485750 -s 0 -d 1 -p tcp -e 1060 -c 2 -a 0 -i 37 -k RTR
+ -t 2.012485750 -s 0 -d -1 -p tcp -e 1040 -c 2 -a 0 -i 38 -k AGT 
- -t 2.012485750 -s 0 -d -1 -p tcp -e 1040 -c 2 -a 0 -i 38 -k AGT
h -t 2.012485750 -s 0 -d -1 -p tcp -e 1040 -c 2 -a 0 -i 38 -k AGT
+ -t 2.012485750 -s 0 -d 1 -p tcp -e 1060 -c 2 -a 0 -i 38 -k RTR 
- -t 2.012485750 -s 0 -d 1 -p tcp -e 1060 -c 2 -a 0 -i 38 -k RTR
h -t 2.012485750 -s 0 -d 1 -p tcp -e 1060 -c 2 -a 0 -i 38 -k RTR
r -t 2.030541849 -s 1 -d 1 -p tcp -e 1060 -c 2 -a 0 -i 20 -k AGT
+ -t 2.030541849 -s 1 -d -1 -p ack -e 40 -c 2 -a 0 -i 39 -k AGT 
- -t 2.030541849 -s 1 -d -1 -p ack -e 40 -c 2 -a 0 -i 39 -k AGT
h -t 2.030541849 -s 1 -d -1 -p ack -e 40 -c 2 -a 0 -i 39 -k AGT
+ -t 2.030541849 -s 1 -d 0 -p ack -e 60 -c 2 -a 0 -i 39 -k RTR 
- -t 2.030541849 -s 1 -d 0 -p ack -e 60 -c 2 -a 0 -i 39 -k RTR
h -t 2.030541849 -s 1 -d 0 -p ack -e 60 -c 2 -a 0 -i 39 -k RTR
r -t 2.211701949 -s 0 -d 0 -p ack -e 60 -c 2 -a 0 -i 39 -k AGT
+ -t 2.211701949 -s 0 -d -1 -p tcp -e 1040 -c 2 -a 0 -i 40 -k AGT 
- -t 2.211701949 -s 0 -d -1 -p tcp -e 1040 -c 2 -a 0 -i 40 -k AGT
h -t 2.211701949 -s 0 -d -1 -p tcp -e 1040 -c 2 -a 0 -i 40 -k AGT
+ -t 2.211701949 -s 0 -d 1 -p tcp -e 1060 -c 2 -a 0 -i 40 -k RTR 
- -t 2.211701949 -s 0 -d 1 -p tcp -e 1060 -c 2 -a 0 -i 40 -k RTR
h -t 2.211701949 -s 0 -d 1 -p tcp -e 1060 -c 2 -a 0 -i 40 -k RTR
+ -t 2.211701949 -s 0 -d -1 -p tcp -e 1040 -c 2 -a 0 -i 41 -k AGT 
- -t 2.211701949 -s 0 -d -1 -p tcp -e 1040 -c 2 -a 0 -i 41 -k AGT
h -t 2.211701949 -s 0 -d -1 -p tcp -e 1040 -c 2 -a 0 -i 41 -k AGT
+ -t 2.211701949 -s 0 -d 1 -p tcp -e 1060 -c 2 -a 0 -i 41 -k RTR 
- -t 2.211701949 -s 0 -d 1 -p tcp -e 1060 -c 2 -a 0 -i 41 -k RTR
h -t 2.211701949 -s 0 -d 1 -p tcp -e 1060 -c 2 -a 0 -i 41 -k RTR
r -t 2.231198049 -s 1 -d 1 -p tcp -e 1060 -c 2 -a 0 -i 22 -k AGT
+ -t 2.231198049 -s 1 -d -1 -p ack -e 40 -c 2 -a 0 -i 42 -k AGT 
- -t 2.231198049 -s 1 -d -1 -p ack -e 40 -c 2 -a 0 -i 42 -k AGT
h -t 2.231198049 -s 1 -d -1 -p ack -e 40 -c 2 -a 0 -i 42 -k AGT
+ -t 2.231198049 -s 1 -d 0 -p ack -e 60 -c 2 -a 0 -i 42 -k RTR 
- -t 2.231198049 -s 1 -d 0 -p ack -e 60 -c 2 -a 0 -i 42 -k RTR
h -t 2.231198049 -s 1 -d 0 -p ack -e 60 -c 2 -a 0 -i 42 -k RTR
r -t 2.241034149 -s 0 -d 0 -p ack -e 60 -c 2 -a 0 -i 42 -k AGT
+ -t 2.241034149 -s 0 -d -1 -p tcp -e 1040 -c 2 -a 0 -i 43 -k AGT 
- -t 2.241034149 -s 0 -d -1 -p tcp -e 1040 -c 2 -a 0 -i 43 -k AGT
h -t 2.241034149 -s 0 -d -1 -p tcp -e 1040 -c 2 -a 0 -i 43 -k AGT
+ -t 2.241034149 -s 0 -d 1 -p tcp -e 1060 -c 2 -a 0 -i 43 -k RTR 
- -t 2.241034149 -s 0 -d 1 -p tcp -e 1060 -c 2 -a 0 -i 43 -k RTR
h -t 2.241034149 -s 0 -d 1 -p tcp -e 1060 -c 2 -a 0 -i 43 -k RTR
+ -t 2.241034149 -s 0 -d -1 -p tcp -e 1040 -c 2 -a 0 -i 44 -k AGT 
- -t 2.241034149 -s 0 -d -1 -p tcp -e 1040 -c 2 -a 0 -i 44 -k AGT
h -t 2.241034149 -s 0 -d -1 -p tcp -e 1040 -c 2 -a 0 -i 44 -k AGT
+ -t 2.241034149 -s 0 -d 1 -p tcp -e 1060 -c 2 -a 0 -i 44 -k RTR 
- -t 2.241034149 -s 0 -d 1 -p tcp -e 1060 -c 2 -a 0 -i 44 -k RTR
h -t 2.241034149 -s 0 -d 1 -p tcp -e 1060 -c 2 -a 0 -i 44 -k RTR
r -t 2.259350249 -s 1 -d 1 -p tcp -e 1060 -c 2 -a 0 -i 23 -k AGT
+ -t 2.259350249 -s 1 -d -1 -p ack -e 40 -c 2 -a 0 -i 45 -k AGT 
- -t 2.259350249 -s 1 -d -1 -p ack -e 40 -c 2 -a 0 -i 45 -k AGT
h -t 2.259350249 -s 1 -d -1 -p ack -e 40 -c 2 -a 0 -i 45 -k AGT
+ -t 2.259350249 -s 1 -d 0 -p ack -e 60 -c 2 -a 0 -i 45 -k RTR 
- -t 2.259350249 -s 1 -d 0 -p ack -e 60 -c 2 -a 0 -i 45 -k RTR
h -t 2.259350249 -s 1 -d 0 -p ack -e 60 -c 2 -a 0 -i 45 -k RTR
r -t 2.493419716 -s 1 -d 1 -p tcp -e 1060 -c 2 -a 0 -i 25 -k AGT
+ -t 2.493419716 -s 1 -d -1 -p ack -e 40 -c 2 -a 0 -i 46 -k AGT 
- -t 2.493419716 -s 1 -d -1 -p ack -e 40 -c 2 -a 0 -i 46 -k AGT
h -t 2.493419716 -s 1 -d -1 -p ack -e 40 -c 2 -a 0 -i 46 -k AGT
+ -t 2.493419716 -s 1 -d 0 -p ack -e 60 -c 2 -a 0 -i 46 -k RTR 
- -t 2.493419716 -s 1 -d 0 -p ack -e 60 -c 2 -a 0 -i 46 -k RTR
h -t 2.493419716 -s 1 -d 0 -p ack -e 60 -c 2 -a 0 -i 46 -k RTR
r -t 2.555445183 -s 1 -d 1 -p tcp -e 1060 -c 2 -a 0 -i 26 -k AGT
+ -t 2.555445183 -s 1 -d -1 -p ack -e 40 -c 2 -a 0 -i 47 -k AGT 
- -t 2.555445183 -s 1 -d -1 -p ack -e 40 -c 2 -a 0 -i 47 -k AGT
h -t 2.555445183 -s 1 -d -1 -p ack -e 40 -c 2 -a 0 -i 47 -k AGT
+ -t 2.555445183 -s 1 -d 0 -p ack -e 60 -c 2 -a 0 -i 47 -k RTR 
- -t 2.555445183 -s 1 -d 0 -p ack -e 60 -c 2 -a 0 -i 47 -k RTR
h -t 2.555445183 -s 1 -d 0 -p ack -e 60 -c 2 -a 0 -i 47 -k RTR
r -t 2.575994649 -s 1 -d 1 -p tcp -e 1060 -c 2 -a 0 -i 28 -k AGT
+ -t 2.575994649 -s 1 -d -1 -p ack -e 40 -c 2 -a 0 -i 48 -k AGT 
- -t 2.575994649 -s 1 -d -1 -p ack -e 40 -c 2 -a 0 -i 48 -k AGT
h -t 2.575994649 -s 1 -d -1 -p ack -e 40 -c 2 -a 0 -i 48 -k AGT
+ -t 2.575994649 -s 1 -d 0 -p ack -e 60 -c 2 -a 0 -i 48 -k RTR 
- -t 2.575994649 -s 1 -d 0 -p ack -e 60 -c 2 -a 0 -i 48 -k RTR
h -t 2.575994649 -s 1 -d 0 -p ack -e 60 -c 2 -a 0 -i 48 -k RTR
r -t 2.596604116 -s 1 -d 1 -p tcp -e 1060 -c 2 -a 0 -i 29 -k AGT
+ -t 2.596604116 -s 1 -d -1 -p ack -e 40 -c 2 -a 0 -i 49 -k AGT 
- -t 2.596604116 -s 1 -d -1 -p ack -e 40 -c 2 -a 0 -i 49 -k AGT
h -t 2.596604116 -s 1 -d -1 -p ack -e 40 -c 2 -a 0 -i 49 -k AGT
+ -t 2.596604116 -s 1 -d 0 -p ack -e 60 -c 2 -a 0 -i 49 -k RTR 
- -t 2.596604116 -s 1 -d 0 -p ack -e 60 -c 2 -a 0 -i 49 -k RTR
h -t 2.596604116 -s 1 -d 0 -p ack -e 60 -c 2 -a 0 -i 49 -k RTR
r -t 2.616993583 -s 1 -d 1 -p tcp -e 1060 -c 2 -a 0 -i 31 -k AGT
+ -t 2.616993583 -s 1 -d -1 -p ack -e 40 -c 2 -a 0 -i 50 -k AGT 
- -t 2.616993583 -s 1 -d -1 -p ack -e 40 -c 2 -a 0 -i 50 -k AGT
h -t 2.616993583 -s 1 -d -1 -p ack -e 40 -c 2 -a 0 -i 50 -k AGT
+ -t 2.616993583 -s 1 -d 0 -p ack -e 60 -c 2 -a 0 -i 50 -k RTR 
- -t 2.616993583 -s 1 -d 0 -p ack -e 60 -c 2 -a 0 -i 50 -k RTR
h -t 2.616993583 -s 1 -d 0 -p ack -e 60 -c 2 -a 0 -i 50 -k RTR
d -t 2.658278583 -s 1 -d 0 -p ack -e 60 -c 2 -a 0 -i 45 -k RTR
r -t 2.668125683 -s 0 -d 0 -p ack -e 60 -c 2 -a 0 -i 46 -k AGT
+ -t 2.668125683 -s 0 -d -1 -p tcp -e 1040 -c 2 -a 0 -i 51 -k AGT 
- -t 2.668125683 -s 0 -d -1 -p tcp -e 1040 -c 2 -a 0 -i 51 -k AGT
h -t 2.668125683 -s 0 -d -1 -p tcp -e 1040 -c 2 -a 0 -i 51 -k AGT
+ -t 2.668125683 -s 0 -d 1 -p tcp -e 1060 -c 2 -a 0 -i 51 -k RTR 
- -t 2.668125683 -s 0 -d 1 -p tcp -e 1060 -c 2 -a 0 -i 51 -k RTR
h -t 2.668125683 -s 0 -d 1 -p tcp -e 1060 -c 2 -a 0 -i 51 -k RTR
+ -t 2.668125683 -s 0 -d -1 -p tcp -e 1040 -c 2 -a 0 -i 52 -k AGT 
- -t 2.668125683 -s 0 -d -1 -p tcp -e 1040 -c 2 -a 0 -i 52 -k AGT
h -t 2.668125683 -s 0 -d -1 -p tcp -e 1040 -c 2 -a 0 -i 52 -k AGT
+ -t 2.668125683 -s 0 -d 1 -p tcp -e 1060 -c 2 -a 0 -i 52 -k RTR 
- -t 2.668125683 -s 0 -d 1 -p tcp -e 1060 -c 2 -a 0 -i 52 -k RTR
h -t 2.668125683 -s 0 -d 1 -p tcp -e 1060 -c 2 -a 0 -i 52 -k RTR
+ -t 2.668125683 -s 0 -d -1 -p tcp -e 1040 -c 2 -a 0 -i 53 -k AGT 
- -t 2.668125683 -s 0 -d -1 -p tcp -e 1040 -c 2 -a 0 -i 53 -k AGT
h -t 2.668125683 -s 0 -d -1 -p tcp -e 1040 -c 2 -a 0 -i 53 -k AGT
+ -t 2.668125683 -s 0 -d 1 -p tcp -e 1060 -c 2 -a 0 -i 53 -k RTR 
- -t 2.668125683 -s 0 -d 1 -p tcp -e 1060 -c 2 -a 0 -i 53 -k RTR
h -t 2.668125683 -s 0 -d 1 -p tcp -e 1060 -c 2 -a 0 -i 53 -k RTR
r -t 2.686241783 -s 1 -d 1 -p tcp -e 1060 -c 2 -a 0 -i 32 -k AGT
+ -t 2.686241783 -s 1 -d -1 -p ack -e 40 -c 2 -a 0 -i 54 -k AGT 
- -t 2.686241783 -s 1 -d -1 -p ack -e 40 -c 2 -a 0 -i 54 -k AGT
h -t 2.686241783 -s 1 -d -1 -p ack -e 40 -c 2 -a 0 -i 54 -k AGT
+ -t 2.686241783 -s 1 -d 0 -p ack -e 60 -c 2 -a 0 -i 54 -k RTR 
- -t 2.686241783 -s 1 -d 0 -p ack -e 60 -c 2 -a 0 -i 54 -k RTR
h -t 2.686241783 -s 1 -d 0 -p ack -e 60 -c 2 -a 0 -i 54 -k RTR
r -t 2.696097882 -s 0 -d 0 -p ack -e 60 -c 2 -a 0 -i 47 -k AGT
+ -t 2.696097882 -s 0 -d -1 -p tcp -e 1040 -c 2 -a 0 -i 55 -k AGT 
- -t 2.696097882 -s 0 -d -1 -p tcp -e 1040 -c 2 -a 0 -i 55 -k AGT
h -t 2.696097882 -s 0 -d -1 -p tcp -e 1040 -c 2 -a 0 -i 55 -k AGT
+ -t 2.696097882 -s 0 -d 1 -p tcp -e 1060 -c 2 -a 0 -i 55 -k RTR 
- -t 2.696097882 -s 0 -d 1 -p tcp -e 1060 -c 2 -a 0 -i 55 -k RTR
h -t 2.696097882 -s 0 -d 1 -p tcp -e 1060 -c 2 -a 0 -i 55 -k RTR
+ -t 2.696097882 -s 0 -d -1 -p tcp -e 1040 -c 2 -a 0 -i 56 -k AGT 
- -t 2.696097882 -s 0 -d -1 -p tcp -e 1040 -c 2 -a 0 -i 56 -k AGT
h -t 2.696097882 -s 0 -d -1 -p tcp -e 1040 -c 2 -a 0 -i 56 -k AGT
+ -t 2.696097882 -s 0 -d 1 -p tcp -e 1060 -c 2 -a 0 -i 56 -k RTR 
- -t 2.696097882 -s 0 -d 1 -p tcp -e 1060 -c 2 -a 0 -i 56 -k RTR
h -t 2.696097882 -s 0 -d 1 -p tcp -e 1060 -c 2 -a 0 -i 56 -k RTR
r -t 2.755129982 -s 1 -d 1 -p tcp -e 1060 -c 2 -a 0 -i 34 -k AGT
+ -t 2.755129982 -s 1 -d -1 -p ack -e 40 -c 2 -a 0 -i 57 -k AGT 
- -t 2.755129982 -s 1 -d -1 -p ack -e 40 -c 2 -a 0 -i 57 -k AGT
h -t 2.755129982 -s 1 -d -1 -p ack -e 40 -c 2 -a 0 -i 57 -k AGT
+ -t 2.755129982 -s 1 -d 0 -p ack -e 60 -c 2 -a 0 -i 57 -k RTR 
- -t 2.755129982 -s 1 -d 0 -p ack -e 60 -c 2 -a 0 -i 57 -k RTR
h -t 2.755129982 -s 1 -d 0 -p ack -e 60 -c 2 -a 0 -i 57 -k RTR
r -t 2.951643449 -s 1 -d 1 -p tcp -e 1060 -c 2 -a 0 -i 35 -k AGT
+ -t 2.951643449 -s 1 -d -1 -p ack -e 40 -c 2 -a 0 -i 58 -k AGT 
- -t 2.951643449 -s 1 -d -1 -p ack -e 40 -c 2 -a 0 -i 58 -k AGT
h -t 2.951643449 -s 1 -d -1 -p ack -e 40 -c 2 -a 0 -i 58 -k AGT
+ -t 2.951643449 -s 1 -d 0 -p ack -e 60 -c 2 -a 0 -i 58 -k RTR 
- -t 2.951643449 -s 1 -d 0 -p ack -e 60 -c 2 -a 0 -i 58 -k RTR
h -t 2.951643449 -s 1 -d 0 -p ack -e 60 -c 2 -a 0 -i 58 -k RTR
r -t 2.972092916 -s 1 -d 1 -p tcp -e 1060 -c 2 -a 0 -i 37 -k AGT
+ -t 2.972092916 -s 1 -d -1 -p ack -e 40 -c 2 -a 0 -i 59 -k AGT 
- -t 2.972092916 -s 1 -d -1 -p ack -e 40 -c 2 -a 0 -i 59 -k AGT
h -t 2.972092916 -s 1 -d -1 -p ack -e 40 -c 2 -a 0 -i 59 -k AGT
+ -t 2.972092916 -s 1 -d 0 -p ack -e 60 -c 2 -a 0 -i 59 -k RTR 
- -t 2.972092916 -s 1 -d 0 -p ack -e 60 -c 2 -a 0 -i 59 -k RTR
h -t 2.972092916 -s 1 -d 0 -p ack -e 60 -c 2 -a 0 -i 59 -k RTR
r -t 3.034318382 -s 1 -d 1 -p tcp -e 1060 -c 2 -a 0 -i 38 -k AGT
+ -t 3.034318382 -s 1 -d -1 -p ack -e 40 -c 2 -a 0 -i 60 -k AGT 
- -t 3.034318382 -s 1 -d -1 -p ack -e 40 -c 2 -a 0 -i 60 -k AGT
h -t 3.034318382 -s 1 -d -1 -p ack -e 40 -c 2 -a 0 -i 60 -k AGT
+ -t 3.034318382 -s 1 -d 0 -p ack -e 60 -c 2 -a 0 -i 60 -k RTR 
- -t 3.034318382 -s 1 -d 0 -p ack -e 60 -c 2 -a 0 -i 60 -k RTR
h -t 3.034318382 -s 1 -d 0 -p ack -e 60 -c 2 -a 0 -i 60 -k RTR
d -t 3.080503382 -s 1 -d 0 -p ack -e 60 -c 2 -a 0 -i 48 -k RTR
r -t 3.173402482 -s 0 -d 0 -p ack -e 60 -c 2 -a 0 -i 49 -k AGT
+ -t 3.173402482 -s 0 -d -1 -p tcp -e 1040 -c 2 -a 0 -i 61 -k AGT 
- -t 3.173402482 -s 0 -d -1 -p tcp -e 1040 -c 2 -a 0 -i 61 -k AGT
h -t 3.173402482 -s 0 -d -1 -p tcp -e 1040 -c 2 -a 0 -i 61 -k AGT
+ -t 3.173402482 -s 0 -d 1 -p tcp -e 1060 -c 2 -a 0 -i 61 -k RTR 
- -t 3.173402482 -s 0 -d 1 -p tcp -e 1060 -c 2 -a 0 -i 61 -k RTR
h -t 3.173402482 -s 0 -d 1 -p tcp -e 1060 -c 2 -a 0 -i 61 -k RTR
+ -t 3.173402482 -s 0 -d -1 -p tcp -e 1040 -c 2 -a 0 -i 62 -k AGT 
- -t 3.173402482 -s 0 -d -1 -p tcp -e 1040 -c 2 -a 0 -i 62 -k AGT
h -t 3.173402482 -s 0 -d -1 -p tcp -e 1040 -c 2 -a 0 -i 62 -k AGT
+ -t 3.173402482 -s 0 -d 1 -p tcp -e 1060 -c 2 -a 0 -i 62 -k RTR 
- -t 3.173402482 -s 0 -d 1 -p tcp -e 1060 -c 2 -a 0 -i 62 -k RTR
h -t 3.173402482 -s 0 -d 1 -p tcp -e 1060 -c 2 -a 0 -i 62 -k RTR
+ -t 3.173402482 -s 0 -d -1 -p tcp -e 1040 -c 2 -a 0 -i 63 -k AGT 
- -t 3.173402482 -s 0 -d -1 -p tcp -e 1040 -c 2 -a 0 -i 63 -k AGT
h -t 3.173402482 -s 0 -d -1 -p tcp -e 1040 -c 2 -a 0 -i 63 -k AGT
+ -t 3.173402482 -s 0 -d 1 -p tcp -e 1060 -c 2 -a 0 -i 63 -k RTR 
- -t 3.173402482 -s 0 -d 1 -p tcp -e 1060 -c 2 -a 0 -i 63 -k RTR
h -t 3.173402482 -s 0 -d 1 -p tcp -e 1060 -c 2 -a 0 -i 63 -k RTR
r -t 3.268843949 -s 0 -d 0 -p ack -e 60 -c 2 -a 0 -i 50 -k AGT
+ -t 3.268843949 -s 0 -d -1 -p tcp -e 1040 -c 2 -a 0 -i 64 -k AGT 
- -t 3.268843949 -s 0 -d -1 -p tcp -e 1040 -c 2 -a 0 -i 64 -k AGT
h -t 3.268843949 -s 0 -d -1 -p tcp -e 1040 -c 2 -a 0 -i 64 -k AGT
+ -t 3.268843949 -s 0 -d 1 -p tcp -e 1060 -c 2 -a 0 -i 64 -k RTR 
- -t 3.268843949 -s 0 -d 1 -p tcp -e 1060 -c 2 -a 0 -i 64 -k RTR
h -t 3.268843949 -s 0 -d 1 -p tcp -e 1060 -c 2 -a 0 -i 64 -k RTR
+ -t 3.268843949 -s 0 -d -1 -p tcp -e 1040 -c 2 -a 0 -i 65 -k AGT 
- -t 3.268843949 -s 0 -d -1 -p tcp -e 1040 -c 2 -a 0 -i 65 -k AGT
h -t 3.268843949 -s 0 -d -1 -p tcp -e 1040 -c 2 -a 0 -i 65 -k AGT
+ -t 3.268843949 -s 0 -d 1 -p tcp -e 1060 -c 2 -a 0 -i 65 -k RTR 
- -t 3.268843949 -s 0 -d 1 -p tcp -e 1060 -c 2 -a 0 -i 65 -k RTR
h -t 3.268843949 -s 0 -d 1 -p tcp -e 1060 -c 2 -a 0 -i 65 -k RTR
r -t 3.281233416 -s 0 -d 0 -p ack -e 60 -c 2 -a 0 -i 54 -k AGT
+ -t 3.281233416 -s 0 -d -1 -p tcp -e 1040 -c 2 -a 0 -i 66 -k AGT 
- -t 3.281233416 -s 0 -d -1 -p tcp -e 1040 -c 2 -a 0 -i 66 -k AGT
h -t 3.281233416 -s 0 -d -1 -p tcp -e 1040 -c 2 -a 0 -i 66 -k AGT
+ -t 3.281233416 -s 0 -d 1 -p tcp -e 1060 -c 2 -a 0 -i 66 -k RTR 
- -t 3.281233416 -s 0 -d 1 -p tcp -e 1060 -c 2 -a 0 -i 66 -k RTR
h -t 3.281233416 -s 0 -d 1 -p tcp -e 1060 -c 2 -a 0 -i 66 -k RTR
+ -t 3.281233416 -s 0 -d -1 -p tcp -e 1040 -c 2 -a 0 -i 67 -k AGT 
- -t 3.281233416 -s 0 -d -1 -p tcp -e 1040 -c 2 -a 0 -i 67 -k AGT
h -t 3.281233416 -s 0 -d -1 -p tcp -e 1040 -c 2 -a 0 -i 67 -k AGT
+ -t 3.281233416 -s 0 -d 1 -p tcp -e 1060 -c 2 -a 0 -i 67 -k RTR 
- -t 3.281233416 -s 0 -d 1 -p tcp -e 1060 -c 2 -a 0 -i 67 -k RTR
h -t 3.281233416 -s 0 -d 1 -p tcp -e 1060 -c 2 -a 0 -i 67 -k RTR
r -t 3.294162882 -s 0 -d 0 -p ack -e 60 -c 2 -a 0 -i 57 -k AGT
+ -t 3.294162882 -s 0 -d -1 -p tcp -e 1040 -c 2 -a 0 -i 68 -k AGT 
- -t 3.294162882 -s 0 -d -1 -p tcp -e 1040 -c 2 -a 0 -i 68 -k AGT
h -t 3.294162882 -s 0 -d -1 -p tcp -e 1040 -c 2 -a 0 -i 68 -k AGT
+ -t 3.294162882 -s 0 -d 1 -p tcp -e 1060 -c 2 -a 0 -i 68 -k RTR 
- -t 3.294162882 -s 0 -d 1 -p tcp -e 1060 -c 2 -a 0 -i 68 -k RTR
h -t 3.294162882 -s 0 -d 1 -p tcp -e 1060 -c 2 -a 0 -i 68 -k RTR
r -t 3.348808349 -s 0 -d 0 -p ack -e 60 -c 2 -a 0 -i 58 -k AGT