n -t * -s 0  -x 0 -y 0 -Z 0 -z 30  -v circle -c black
n -t * -s 1  -x 355220.25349099998 -y 0 -Z 0 -z 30  -v circle -c black
V -t * -v 1.0a5 -a 0
W -t * -x 355220.253491 -y 400
A -t * -n 1 -p 0 -o 0xffffffff -c 31 -a 1
A -t * -h 1 -m 2147483647 -s 0
+ -t 0.000000000 -s 0 -d -1 -p tcp -e 40 -c 2 -a 0 -i 0 -k AGT 
- -t 0.000000000 -s 0 -d -1 -p tcp -e 40 -c 2 -a 0 -i 0 -k AGT
h -t 0.000000000 -s 0 -d -1 -p tcp -e 40 -c 2 -a 0 -i 0 -k AGT
+ -t 0.029290548 -s 1 -d -1 -p message -e 32 -c 2 -a 0 -i 1 -k RTR 
- -t 0.029290548 -s 1 -d -1 -p message -e 32 -c 2 -a 0 -i 1 -k RTR
h -t 0.029290548 -s 1 -d -1 -p message -e 32 -c 2 -a 0 -i 1 -k RTR
r -t 0.031246616 -s 0 -d -1 -p message -e 32 -c 2 -a 0 -i 1 -k RTR
+ -t 0.031246616 -s 0 -d 1 -p tcp -e 80 -c 2 -a 0 -i 0 -k RTR 
- -t 0.031246616 -s 0 -d 1 -p tcp -e 80 -c 2 -a 0 -i 0 -k RTR
h -t 0.031246616 -s 0 -d 1 -p tcp -e 80 -c 2 -a 0 -i 0 -k RTR
r -t 0.036830818 -s 1 -d 1 -p tcp -e 80 -c 2 -a 0 -i 0 -k AGT
+ -t 0.036830818 -s 1 -d -1 -p ack -e 40 -c 2 -a 0 -i 2 -k AGT 
- -t 0.036830818 -s 1 -d -1 -p ack -e 40 -c 2 -a 0 -i 2 -k AGT
h -t 0.036830818 -s 1 -d -1 -p ack -e 40 -c 2 -a 0 -i 2 -k AGT
+ -t 1.118150083 -s 0 -d -1 -p message -e 44 -c 2 -a 0 -i 3 -k RTR 
- -t 1.118150083 -s 0 -d -1 -p message -e 44 -c 2 -a 0 -i 3 -k RTR
h -t 1.118150083 -s 0 -d -1 -p message -e 44 -c 2 -a 0 -i 3 -k RTR
r -t 1.120442151 -s 1 -d -1 -p message -e 44 -c 2 -a 0 -i 3 -k RTR
+ -t 1.120442151 -s 1 -d 0 -p ack -e 80 -c 2 -a 0 -i 2 -k RTR 
- -t 1.120442151 -s 1 -d 0 -p ack -e 80 -c 2 -a 0 -i 2 -k RTR
h -t 1.120442151 -s 1 -d 0 -p ack -e 80 -c 2 -a 0 -i 2 -k RTR
r -t 1.126366353 -s 0 -d 0 -p ack -e 80 -c 2 -a 0 -i 2 -k AGT
+ -t 1.126366353 -s 0 -d -1 -p tcp -e 1040 -c 2 -a 0 -i 4 -k AGT 
- -t 1.126366353 -s 0 -d -1 -p tcp -e 1040 -c 2 -a 0 -i 4 -k AGT
h -t 1.126366353 -s 0 -d -1 -p tcp -e 1040 -c 2 -a 0 -i 4 -k AGT
+ -t 1.126366353 -s 0 -d 1 -p tcp -e 1060 -c 2 -a 0 -i 4 -k RTR 
- -t 1.126366353 -s 0 -d 1 -p tcp -e 1060 -c 2 -a 0 -i 4 -k RTR
h -t 1.126366353 -s 0 -d 1 -p tcp -e 1060 -c 2 -a 0 -i 4 -k RTR
+ -t 1.126366353 -s 0 -d -1 -p tcp -e 1040 -c 2 -a 0 -i 5 -k AGT 
- -t 1.126366353 -s 0 -d -1 -p tcp -e 1040 -c 2 -a 0 -i 5 -k AGT
h -t 1.126366353 -s 0 -d -1 -p tcp -e 1040 -c 2 -a 0 -i 5 -k AGT
+ -t 1.126366353 -s 0 -d 1 -p tcp -e 1060 -c 2 -a 0 -i 5 -k RTR 
- -t 1.126366353 -s 0 -d 1 -p tcp -e 1060 -c 2 -a 0 -i 5 -k RTR
h -t 1.126366353 -s 0 -d 1 -p tcp -e 1060 -c 2 -a 0 -i 5 -k RTR
r -t 1.140014556 -s 1 -d 1 -p tcp -e 1060 -c 2 -a 0 -i 4 -k AGT
+ -t 1.140014556 -s 1 -d -1 -p ack -e 40 -c 2 -a 0 -i 6 -k AGT 
- -t 1.140014556 -s 1 -d -1 -p ack -e 40 -c 2 -a 0 -i 6 -k AGT
h -t 1.140014556 -s 1 -d -1 -p ack -e 40 -c 2 -a 0 -i 6 -k AGT
+ -t 1.140014556 -s 1 -d 0 -p ack -e 60 -c 2 -a 0 -i 6 -k RTR 
- -t 1.140014556 -s 1 -d 0 -p ack -e 60 -c 2 -a 0 -i 6 -k RTR
h -t 1.140014556 -s 1 -d 0 -p ack -e 60 -c 2 -a 0 -i 6 -k RTR
r -t 1.145722759 -s 0 -d 0 -p ack -e 60 -c 2 -a 0 -i 6 -k AGT
+ -t 1.145722759 -s 0 -d -1 -p tcp -e 1040 -c 2 -a 0 -i 7 -k AGT 
- -t 1.145722759 -s 0 -d -1 -p tcp -e 1040 -c 2 -a 0 -i 7 -k AGT
h -t 1.145722759 -s 0 -d -1 -p tcp -e 1040 -c 2 -a 0 -i 7 -k AGT
+ -t 1.145722759 -s 0 -d 1 -p tcp -e 1060 -c 2 -a 0 -i 7 -k RTR 
- -t 1.145722759 -s 0 -d 1 -p tcp -e 1060 -c 2 -a 0 -i 7 -k RTR
h -t 1.145722759 -s 0 -d 1 -p tcp -e 1060 -c 2 -a 0 -i 7 -k RTR
+ -t 1.145722759 -s 0 -d -1 -p tcp -e 1040 -c 2 -a 0 -i 8 -k AGT 
- -t 1.145722759 -s 0 -d -1 -p tcp -e 1040 -c 2 -a 0 -i 8 -k AGT
h -t 1.145722759 -s 0 -d -1 -p tcp -e 1040 -c 2 -a 0 -i 8 -k AGT
+ -t 1.145722759 -s 0 -d 1 -p tcp -e 1060 -c 2 -a 0 -i 8 -k RTR 
- -t 1.145722759 -s 0 -d 1 -p tcp -e 1060 -c 2 -a 0 -i 8 -k RTR
h -t 1.145722759 -s 0 -d 1 -p tcp -e 1060 -c 2 -a 0 -i 8 -k RTR
r -t 1.159250961 -s 1 -d 1 -p tcp -e 1060 -c 2 -a 0 -i 5 -k AGT
+ -t 1.159250961 -s 1 -d -1 -p ack -e 40 -c 2 -a 0 -i 9 -k AGT 
- -t 1.159250961 -s 1 -d -1 -p ack -e 40 -c 2 -a 0 -i 9 -k AGT
h -t 1.159250961 -s 1 -d -1 -p ack -e 40 -c 2 -a 0 -i 9 -k AGT
+ -t 1.159250961 -s 1 -d 0 -p ack -e 60 -c 2 -a 0 -i 9 -k RTR 
- -t 1.159250961 -s 1 -d 0 -p ack -e 60 -c 2 -a 0 -i 9 -k RTR
h -t 1.159250961 -s 1 -d 0 -p ack -e 60 -c 2 -a 0 -i 9 -k RTR
r -t 1.164879164 -s 0 -d 0 -p ack -e 60 -c 2 -a 0 -i 9 -k AGT
+ -t 1.164879164 -s 0 -d -1 -p tcp -e 1040 -c 2 -a 0 -i 10 -k AGT 
- -t 1.164879164 -s 0 -d -1 -p tcp -e 1040 -c 2 -a 0 -i 10 -k AGT
h -t 1.164879164 -s 0 -d -1 -p tcp -e 1040 -c 2 -a 0 -i 10 -k AGT
+ -t 1.164879164 -s 0 -d 1 -p tcp -e 1060 -c 2 -a 0 -i 10 -k RTR 
- -t 1.164879164 -s 0 -d 1 -p tcp -e 1060 -c 2 -a 0 -i 10 -k RTR
h -t 1.164879164 -s 0 -d 1 -p tcp -e 1060 -c 2 -a 0 -i 10 -k RTR
+ -t 1.164879164 -s 0 -d -1 -p tcp -e 1040 -c 2 -a 0 -i 11 -k AGT 
- -t 1.164879164 -s 0 -d -1 -p tcp -e 1040 -c 2 -a 0 -i 11 -k AGT
h -t 1.164879164 -s 0 -d -1 -p tcp -e 1040 -c 2 -a 0 -i 11 -k AGT
+ -t 1.164879164 -s 0 -d 1 -p tcp -e 1060 -c 2 -a 0 -i 11 -k RTR 
- -t 1.164879164 -s 0 -d 1 -p tcp -e 1060 -c 2 -a 0 -i 11 -k RTR
h -t 1.164879164 -s 0 -d 1 -p tcp -e 1060 -c 2 -a 0 -i 11 -k RTR
r -t 1.178727366 -s 1 -d 1 -p tcp -e 1060 -c 2 -a 0 -i 7 -k AGT
+ -t 1.178727366 -s 1 -d -1 -p ack -e 40 -c 2 -a 0 -i 12 -k AGT 
- -t 1.178727366 -s 1 -d -1 -p ack -e 40 -c 2 -a 0 -i 12 -k AGT
h -t 1.178727366 -s 1 -d -1 -p ack -e 40 -c 2 -a 0 -i 12 -k AGT
+ -t 1.178727366 -s 1 -d 0 -p ack -e 60 -c 2 -a 0 -i 12 -k RTR 
- -t 1.178727366 -s 1 -d 0 -p ack -e 60 -c 2 -a 0 -i 12 -k RTR
h -t 1.178727366 -s 1 -d 0 -p ack -e 60 -c 2 -a 0 -i 12 -k RTR
r -t 1.268087569 -s 0 -d 0 -p ack -e 60 -c 2 -a 0 -i 12 -k AGT
+ -t 1.268087569 -s 0 -d -1 -p tcp -e 1040 -c 2 -a 0 -i 13 -k AGT 
- -t 1.268087569 -s 0 -d -1 -p tcp -e 1040 -c 2 -a 0 -i 13 -k AGT
h -t 1.268087569 -s 0 -d -1 -p tcp -e 1040 -c 2 -a 0 -i 13 -k AGT
+ -t 1.268087569 -s 0 -d 1 -p tcp -e 1060 -c 2 -a 0 -i 13 -k RTR 
- -t 1.268087569 -s 0 -d 1 -p tcp -e 1060 -c 2 -a 0 -i 13 -k RTR
h -t 1.268087569 -s 0 -d 1 -p tcp -e 1060 -c 2 -a 0 -i 13 -k RTR
+ -t 1.268087569 -s 0 -d -1 -p tcp -e 1040 -c 2 -a 0 -i 14 -k AGT 
- -t 1.268087569 -s 0 -d -1 -p tcp -e 1040 -c 2 -a 0 -i 14 -k AGT
h -t 1.268087569 -s 0 -d -1 -p tcp -e 1040 -c 2 -a 0 -i 14 -k AGT
+ -t 1.268087569 -s 0 -d 1 -p tcp -e 1060 -c 2 -a 0 -i 14 -k RTR 
- -t 1.268087569 -s 0 -d 1 -p tcp -e 1060 -c 2 -a 0 -i 14 -k RTR
h -t 1.268087569 -s 0 -d 1 -p tcp -e 1060 -c 2 -a 0 -i 14 -k RTR
r -t 1.281775771 -s 1 -d 1 -p tcp -e 1060 -c 2 -a 0 -i 8 -k AGT
+ -t 1.281775771 -s 1 -d -1 -p ack -e 40 -c 2 -a 0 -i 15 -k AGT 
- -t 1.281775771 -s 1 -d -1 -p ack -e 40 -c 2 -a 0 -i 15 -k AGT
h -t 1.281775771 -s 1 -d -1 -p ack -e 40 -c 2 -a 0 -i 15 -k AGT
+ -t 1.281775771 -s 1 -d 0 -p ack -e 60 -c 2 -a 0 -i 15 -k RTR 
- -t 1.281775771 -s 1 -d 0 -p ack -e 60 -c 2 -a 0 -i 15 -k RTR
h -t 1.281775771 -s 1 -d 0 -p ack -e 60 -c 2 -a 0 -i 15 -k RTR
r -t 1.461507974 -s 0 -d 0 -p ack -e 60 -c 2 -a 0 -i 15 -k AGT
+ -t 1.461507974 -s 0 -d -1 -p tcp -e 1040 -c 2 -a 0 -i 16 -k AGT 
- -t 1.461507974 -s 0 -d -1 -p tcp -e 1040 -c 2 -a 0 -i 16 -k AGT
h -t 1.461507974 -s 0 -d -1 -p tcp -e 1040 -c 2 -a 0 -i 16 -k AGT
+ -t 1.461507974 -s 0 -d 1 -p tcp -e 1060 -c 2 -a 0 -i 16 -k RTR 
- -t 1.461507974 -s 0 -d 1 -p tcp -e 1060 -c 2 -a 0 -i 16 -k RTR
h -t 1.461507974 -s 0 -d 1 -p tcp -e 1060 -c 2 -a 0 -i 16 -k RTR
+ -t 1.461507974 -s 0 -d -1 -p tcp -e 1040 -c 2 -a 0 -i 17 -k AGT 
- -t 1.461507974 -s 0 -d -1 -p tcp -e 1040 -c 2 -a 0 -i 17 -k AGT
h -t 1.461507974 -s 0 -d -1 -p tcp -e 1040 -c 2 -a 0 -i 17 -k AGT
+ -t 1.461507974 -s 0 -d 1 -p tcp -e 1060 -c 2 -a 0 -i 17 -k RTR 
- -t 1.461507974 -s 0 -d 1 -p tcp -e 1060 -c 2 -a 0 -i 17 -k RTR
h -t 1.461507974 -s 0 -d 1 -p tcp -e 1060 -c 2 -a 0 -i 17 -k RTR
r -t 1.475196176 -s 1 -d 1 -p tcp -e 1060 -c 2 -a 0 -i 10 -k AGT
+ -t 1.475196176 -s 1 -d -1 -p ack -e 40 -c 2 -a 0 -i 18 -k AGT 
- -t 1.475196176 -s 1 -d -1 -p ack -e 40 -c 2 -a 0 -i 18 -k AGT
h -t 1.475196176 -s 1 -d -1 -p ack -e 40 -c 2 -a 0 -i 18 -k AGT
+ -t 1.475196176 -s 1 -d 0 -p ack -e 60 -c 2 -a 0 -i 18 -k RTR 
- -t 1.475196176 -s 1 -d 0 -p ack -e 60 -c 2 -a 0 -i 18 -k RTR
h -t 1.475196176 -s 1 -d 0 -p ack -e 60 -c 2 -a 0 -i 18 -k RTR
r -t 1.480704379 -s 0 -d 0 -p ack -e 60 -c 2 -a 0 -i 18 -k AGT
+ -t 1.480704379 -s 0 -d -1 -p tcp -e 1040 -c 2 -a 0 -i 19 -k AGT 
- -t 1.480704379 -s 0 -d -1 -p tcp -e 1040 -c 2 -a 0 -i 19 -k AGT
h -t 1.480704379 -s 0 -d -1 -p tcp -e 1040 -c 2 -a 0 -i 19 -k AGT
+ -t 1.480704379 -s 0 -d 1 -p tcp -e 1060 -c 2 -a 0 -i 19 -k RTR 
- -t 1.480704379 -s 0 -d 1 -p tcp -e 1060 -c 2 -a 0 -i 19 -k RTR
h -t 1.480704379 -s 0 -d 1 -p tcp -e 1060 -c 2 -a 0 -i 19 -k RTR
+ -t 1.480704379 -s 0 -d -1 -p tcp -e 1040 -c 2 -a 0 -i 20 -k AGT 
- -t 1.480704379 -s 0 -d -1 -p tcp -e 1040 -c 2 -a 0 -i 20 -k AGT
h -t 1.480704379 -s 0 -d -1 -p tcp -e 1040 -c 2 -a 0 -i 20 -k AGT
+ -t 1.480704379 -s 0 -d 1 -p tcp -e 1060 -c 2 -a 0 -i 20 -k RTR 
- -t 1.480704379 -s 0 -d 1 -p tcp -e 1060 -c 2 -a 0 -i 20 -k RTR
h -t 1.480704379 -s 0 -d 1 -p tcp -e 1060 -c 2 -a 0 -i 20 -k RTR
r -t 1.494292581 -s 1 -d 1 -p tcp -e 1060 -c 2 -a 0 -i 11 -k AGT
+ -t 1.494292581 -s 1 -d -1 -p ack -e 40 -c 2 -a 0 -i 21 -k AGT 
- -t 1.494292581 -s 1 -d -1 -p ack -e 40 -c 2 -a 0 -i 21 -k AGT
h -t 1.494292581 -s 1 -d -1 -p ack -e 40 -c 2 -a 0 -i 21 -k AGT
+ -t 1.494292581 -s 1 -d 0 -p ack -e 60 -c 2 -a 0 -i 21 -k RTR 
- -t 1.494292581 -s 1 -d 0 -p ack -e 60 -c 2 -a 0 -i 21 -k RTR
h -t 1.494292581 -s 1 -d 0 -p ack -e 60 -c 2 -a 0 -i 21 -k RTR
r -t 1.635352851 -s 1 -d 1 -p tcp -e 1060 -c 2 -a 0 -i 13 -k AGT
+ -t 1.635352851 -s 1 -d -1 -p ack -e 40 -c 2 -a 0 -i 22 -k AGT 
- -t 1.635352851 -s 1 -d -1 -p ack -e 40 -c 2 -a 0 -i 22 -k AGT
h -t 1.635352851 -s 1 -d -1 -p ack -e 40 -c 2 -a 0 -i 22 -k AGT
+ -t 1.635352851 -s 1 -d 0 -p ack -e 60 -c 2 -a 0 -i 22 -k RTR 
- -t 1.635352851 -s 1 -d 0 -p ack -e 60 -c 2 -a 0 -i 22 -k RTR
h -t 1.635352851 -s 1 -d 0 -p ack -e 60 -c 2 -a 0 -i 22 -k RTR
r -t 1.691501121 -s 1 -d 1 -p tcp -e 1060 -c 2 -a 0 -i 14 -k AGT
+ -t 1.691501121 -s 1 -d -1 -p ack -e 40 -c 2 -a 0 -i 23 -k AGT 
- -t 1.691501121 -s 1 -d -1 -p ack -e 40 -c 2 -a 0 -i 23 -k AGT
h -t 1.691501121 -s 1 -d -1 -p ack -e 40 -c 2 -a 0 -i 23 -k AGT
+ -t 1.691501121 -s 1 -d 0 -p ack -e 60 -c 2 -a 0 -i 23 -k RTR 
- -t 1.691501121 -s 1 -d 0 -p ack -e 60 -c 2 -a 0 -i 23 -k RTR
h -t 1.691501121 -s 1 -d 0 -p ack -e 60 -c 2 -a 0 -i 23 -k RTR
r -t 1.706653391 -s 1 -d 1 -p tcp -e 1060 -c 2 -a 0 -i 16 -k AGT
+ -t 1.706653391 -s 1 -d -1 -p ack -e 40 -c 2 -a 0 -i 24 -k AGT 
- -t 1.706653391 -s 1 -d -1 -p ack -e 40 -c 2 -a 0 -i 24 -k AGT
h -t 1.706653391 -s 1 -d -1 -p ack -e 40 -c 2 -a 0 -i 24 -k AGT
+ -t 1.706653391 -s 1 -d 0 -p ack -e 60 -c 2 -a 0 -i 24 -k RTR 
- -t 1.706653391 -s 1 -d 0 -p ack -e 60 -c 2 -a 0 -i 24 -k RTR
h -t 1.706653391 -s 1 -d 0 -p ack -e 60 -c 2 -a 0 -i 24 -k RTR
r -t 1.721325662 -s 1 -d 1 -p tcp -e 1060 -c 2 -a 0 -i 17 -k AGT
+ -t 1.721325662 -s 1 -d -1 -p ack -e 40 -c 2 -a 0 -i 25 -k AGT 
- -t 1.721325662 -s 1 -d -1 -p ack -e 40 -c 2 -a 0 -i 25 -k AGT
h -t 1.721325662 -s 1 -d -1 -p ack -e 40 -c 2 -a 0 -i 25 -k AGT
+ -t 1.721325662 -s 1 -d 0 -p ack -e 60 -c 2 -a 0 -i 25 -k RTR 
- -t 1.721325662 -s 1 -d 0 -p ack -e 60 -c 2 -a 0 -i 25 -k RTR
h -t 1.721325662 -s 1 -d 0 -p ack -e 60 -c 2 -a 0 -i 25 -k RTR
r -t 1.777813932 -s 1 -d 1 -p tcp -e 1060 -c 2 -a 0 -i 19 -k AGT
+ -t 1.777813932 -s 1 -d -1 -p ack -e 40 -c 2 -a 0 -i 26 -k AGT 
- -t 1.777813932 -s 1 -d -1 -p ack -e 40 -c 2 -a 0 -i 26 -k AGT
h -t 1.777813932 -s 1 -d -1 -p ack -e 40 -c 2 -a 0 -i 26 -k AGT
+ -t 1.777813932 -s 1 -d 0 -p ack -e 60 -c 2 -a 0 -i 26 -k RTR 
- -t 1.777813932 -s 1 -d 0 -p ack -e 60 -c 2 -a 0 -i 26 -k RTR
h -t 1.777813932 -s 1 -d 0 -p ack -e 60 -c 2 -a 0 -i 26 -k RTR
r -t 1.792706202 -s 1 -d 1 -p tcp -e 1060 -c 2 -a 0 -i 20 -k AGT
+ -t 1.792706202 -s 1 -d -1 -p ack -e 40 -c 2 -a 0 -i 27 -k AGT 
- -t 1.792706202 -s 1 -d -1 -p ack -e 40 -c 2 -a 0 -i 27 -k AGT
h -t 1.792706202 -s 1 -d -1 -p ack -e 40 -c 2 -a 0 -i 27 -k AGT
+ -t 1.792706202 -s 1 -d 0 -p ack -e 60 -c 2 -a 0 -i 27 -k RTR 
- -t 1.792706202 -s 1 -d 0 -p ack -e 60 -c 2 -a 0 -i 27 -k RTR
h -t 1.792706202 -s 1 -d 0 -p ack -e 60 -c 2 -a 0 -i 27 -k RTR
r -t 1.805594404 -s 0 -d 0 -p ack -e 60 -c 2 -a 0 -i 21 -k AGT
+ -t 1.805594404 -s 0 -d -1 -p tcp -e 1040 -c 2 -a 0 -i 28 -k AGT 
- -t 1.805594404 -s 0 -d -1 -p tcp -e 1040 -c 2 -a 0 -i 28 -k AGT
h -t 1.805594404 -s 0 -d -1 -p tcp -e 1040 -c 2 -a 0 -i 28 -k AGT
+ -t 1.805594404 -s 0 -d 1 -p tcp -e 1060 -c 2 -a 0 -i 28 -k RTR 
- -t 1.805594404 -s 0 -d 1 -p tcp -e 1060 -c 2 -a 0 -i 28 -k RTR
h -t 1.805594404 -s 0 -d 1 -p tcp -e 1060 -c 2 -a 0 -i 28 -k RTR
+ -t 1.805594404 -s 0 -d -1 -p tcp -e 1040 -c 2 -a 0 -i 29 -k AGT 
- -t 1.805594404 -s 0 -d -1 -p tcp -e 1040 -c 2 -a 0 -i 29 -k AGT
h -t 1.805594404 -s 0 -d -1 -p tcp -e 1040 -c 2 -a 0 -i 29 -k AGT
+ -t 1.805594404 -s 0 -d 1 -p tcp -e 1060 -c 2 -a 0 -i 29 -k RTR 
- -t 1.805594404 -s 0 -d 1 -p tcp -e 1060 -c 2 -a 0 -i 29 -k RTR
h -t 1.805594404 -s 0 -d 1 -p tcp -e 1060 -c 2 -a 0 -i 29 -k RTR
r -t 1.902594607 -s 1 -d 1 -p tcp -e 1060 -c 2 -a 0 -i 28 -k AGT
+ -t 1.902594607 -s 1 -d -1 -p ack -e 40 -c 2 -a 0 -i 30 -k AGT 
- -t 1.902594607 -s 1 -d -1 -p ack -e 40 -c 2 -a 0 -i 30 -k AGT
h -t 1.902594607 -s 1 -d -1 -p ack -e 40 -c 2 -a 0 -i 30 -k AGT
+ -t 1.902594607 -s 1 -d 0 -p ack -e 60 -c 2 -a 0 -i 30 -k RTR 
- -t 1.902594607 -s 1 -d 0 -p ack -e 60 -c 2 -a 0 -i 30 -k RTR
h -t 1.902594607 -s 1 -d 0 -p ack -e 60 -c 2 -a 0 -i 30 -k RTR
r -t 1.908442809 -s 0 -d 0 -p ack -e 60 -c 2 -a 0 -i 22 -k AGT
+ -t 1.908442809 -s 0 -d -1 -p tcp -e 1040 -c 2 -a 0 -i 31 -k AGT 
- -t 1.908442809 -s 0 -d -1 -p tcp -e 1040 -c 2 -a 0 -i 31 -k AGT
h -t 1.908442809 -s 0 -d -1 -p tcp -e 1040 -c 2 -a 0 -i 31 -k AGT
+ -t 1.908442809 -s 0 -d 1 -p tcp -e 1060 -c 2 -a 0 -i 31 -k RTR 
- -t 1.908442809 -s 0 -d 1 -p tcp -e 1060 -c 2 -a 0 -i 31 -k RTR
h -t 1.908442809 -s 0 -d 1 -p tcp -e 1060 -c 2 -a 0 -i 31 -k RTR
+ -t 1.908442809 -s 0 -d -1 -p tcp -e 1040 -c 2 -a 0 -i 32 -k AGT 
- -t 1.908442809 -s 0 -d -1 -p tcp -e 1040 -c 2 -a 0 -i 32 -k AGT
h -t 1.908442809 -s 0 -d -1 -p tcp -e 1040 -c 2 -a 0 -i 32 -k AGT
+ -t 1.908442809 -s 0 -d 1 -p tcp -e 1060 -c 2 -a 0 -i 32 -k RTR 
- -t 1.908442809 -s 0 -d 1 -p tcp -e 1060 -c 2 -a 0 -i 32 -k RTR
h -t 1.908442809 -s 0 -d 1 -p tcp -e 1060 -c 2 -a 0 -i 32 -k RTR
r -t 1.922071012 -s 1 -d 1 -p tcp -e 1060 -c 2 -a 0 -i 29 -k AGT
+ -t 1.922071012 -s 1 -d -1 -p ack -e 40 -c 2 -a 0 -i 33 -k AGT 
- -t 1.922071012 -s 1 -d -1 -p ack -e 40 -c 2 -a 0 -i 33 -k AGT
h -t 1.922071012 -s 1 -d -1 -p ack -e 40 -c 2 -a 0 -i 33 -k AGT
+ -t 1.922071012 -s 1 -d 0 -p ack -e 60 -c 2 -a 0 -i 33 -k RTR 
- -t 1.922071012 -s 1 -d 0 -p ack -e 60 -c 2 -a 0 -i 33 -k RTR
h -t 1.922071012 -s 1 -d 0 -p ack -e 60 -c 2 -a 0 -i 33 -k RTR
r -t 1.927679214 -s 0 -d 0 -p ack -e 60 -c 2 -a 0 -i 23 -k AGT
+ -t 1.927679214 -s 0 -d -1 -p tcp -e 1040 -c 2 -a 0 -i 34 -k AGT 
- -t 1.927679214 -s 0 -d -1 -p tcp -e 1040 -c 2 -a 0 -i 34 -k AGT
h -t 1.927679214 -s 0 -d -1 -p tcp -e 1040 -c 2 -a 0 -i 34 -k AGT
+ -t 1.927679214 -s 0 -d 1 -p tcp -e 1060 -c 2 -a 0 -i 34 -k RTR 
- -t 1.927679214 -s 0 -d 1 -p tcp -e 1060 -c 2 -a 0 -i 34 -k RTR
h -t 1.927679214 -s 0 -d 1 -p tcp -e 1060 -c 2 -a 0 -i 34 -k RTR
+ -t 1.927679214 -s 0 -d -1 -p tcp -e 1040 -c 2 -a 0 -i 35 -k AGT 
- -t 1.927679214 -s 0 -d -1 -p tcp -e 1040 -c 2 -a 0 -i 35 -k AGT
h -t 1.927679214 -s 0 -d -1 -p tcp -e 1040 -c 2 -a 0 -i 35 -k AGT
+ -t 1.927679214 -s 0 -d 1 -p tcp -e 1060 -c 2 -a 0 -i 35 -k RTR 
- -t 1.927679214 -s 0 -d 1 -p tcp -e 1060 -c 2 -a 0 -i 35 -k RTR
h -t 1.927679214 -s 0 -d 1 -p tcp -e 1060 -c 2 -a 0 -i 35 -k RTR
r -t 1.941187417 -s 1 -d 1 -p tcp -e 1060 -c 2 -a 0 -i 31 -k AGT
+ -t 1.941187417 -s 1 -d -1 -p ack -e 40 -c 2 -a 0 -i 36 -k AGT 
- -t 1.941187417 -s 1 -d -1 -p ack -e 40 -c 2 -a 0 -i 36 -k AGT
h -t 1.941187417 -s 1 -d -1 -p ack -e 40 -c 2 -a 0 -i 36 -k AGT
+ -t 1.941187417 -s 1 -d 0 -p ack -e 60 -c 2 -a 0 -i 36 -k RTR 
- -t 1.941187417 -s 1 -d 0 -p ack -e 60 -c 2 -a 0 -i 36 -k RTR
h -t 1.941187417 -s 1 -d 0 -p ack -e 60 -c 2 -a 0 -i 36 -k RTR
r -t 1.988291619 -s 0 -d 0 -p ack -e 60 -c 2 -a 0 -i 24 -k AGT
+ -t 1.988291619 -s 0 -d -1 -p tcp -e 1040 -c 2 -a 0 -i 37 -k AGT 
- -t 1.988291619 -s 0 -d -1 -p tcp -e 1040 -c 2 -a 0 -i 37 -k AGT
h -t 1.988291619 -s 0 -d -1 -p tcp -e 1040 -c 2 -a 0 -i 37 -k AGT
+ -t 1.988291619 -s 0 -d 1 -p tcp -e 1060 -c 2 -a 0 -i 37 -k RTR 
- -t 1.988291619 -s 0 -d 1 -p tcp -e 1060 -c 2 -a 0 -i 37 -k RTR
h -t 1.988291619 -s 0 -d 1 -p tcp -e 1060 -c 2 -a 0 -i 37 -k RTR
+ -t 1.988291619 -s 0 -d -1 -p tcp -e 1040 -c 2 -a 0 -i 38 -k AGT 
- -t 1.988291619 -s 0 -d -1 -p tcp -e 1040 -c 2 -a 0 -i 38 -k AGT
h -t 1.988291619 -s 0 -d -1 -p tcp -e 1040 -c 2 -a 0 -i 38 -k AGT
+ -t 1.988291619 -s 0 -d 1 -p tcp -e 1060 -c 2 -a 0 -i 38 -k RTR 
- -t 1.988291619 -s 0 -d 1 -p tcp -e 1060 -c 2 -a 0 -i 38 -k RTR
h -t 1.988291619 -s 0 -d 1 -p tcp -e 1060 -c 2 -a 0 -i 38 -k RTR
r -t 2.043055822 -s 1 -d 1 -p tcp -e 1060 -c 2 -a 0 -i 32 -k AGT
+ -t 2.043055822 -s 1 -d -1 -p ack -e 40 -c 2 -a 0 -i 39 -k AGT 
- -t 2.043055822 -s 1 -d -1 -p ack -e 40 -c 2 -a 0 -i 39 -k AGT
h -t 2.043055822 -s 1 -d -1 -p ack -e 40 -c 2 -a 0 -i 39 -k AGT
+ -t 2.043055822 -s 1 -d 0 -p ack -e 60 -c 2 -a 0 -i 39 -k RTR 
- -t 2.043055822 -s 1 -d 0 -p ack -e 60 -c 2 -a 0 -i 39 -k RTR
h -t 2.043055822 -s 1 -d 0 -p ack -e 60 -c 2 -a 0 -i 39 -k RTR
r -t 2.140940092 -s 1 -d 1 -p tcp -e 1060 -c 2 -a 0 -i 34 -k AGT
+ -t 2.140940092 -s 1 -d -1 -p ack -e 40 -c 2 -a 0 -i 40 -k AGT 
- -t 2.140940092 -s 1 -d -1 -p ack -e 40 -c 2 -a 0 -i 40 -k AGT
h -t 2.140940092 -s 1 -d -1 -p ack -e 40 -c 2 -a 0 -i 40 -k AGT
+ -t 2.140940092 -s 1 -d 0 -p ack -e 60 -c 2 -a 0 -i 40 -k RTR 
- -t 2.140940092 -s 1 -d 0 -p ack -e 60 -c 2 -a 0 -i 40 -k RTR
h -t 2.140940092 -s 1 -d 0 -p ack -e 60 -c 2 -a 0 -i 40 -k RTR
r -t 2.196508362 -s 1 -d 1 -p tcp -e 1060 -c 2 -a 0 -i 35 -k AGT
+ -t 2.196508362 -s 1 -d -1 -p ack -e 40 -c 2 -a 0 -i 41 -k AGT 
- -t 2.196508362 -s 1 -d -1 -p ack -e 40 -c 2 -a 0 -i 41 -k AGT
h -t 2.196508362 -s 1 -d -1 -p ack -e 40 -c 2 -a 0 -i 41 -k AGT
+ -t 2.196508362 -s 1 -d 0 -p ack -e 60 -c 2 -a 0 -i 41 -k RTR 
- -t 2.196508362 -s 1 -d 0 -p ack -e 60 -c 2 -a 0 -i 41 -k RTR
h -t 2.196508362 -s 1 -d 0 -p ack -e 60 -c 2 -a 0 -i 41 -k RTR
r -t 2.211300632 -s 1 -d 1 -p tcp -e 1060 -c 2 -a 0 -i 37 -k AGT
+ -t 2.211300632 -s 1 -d -1 -p ack -e 40 -c 2 -a 0 -i 42 -k AGT 
- -t 2.211300632 -s 1 -d -1 -p ack -e 40 -c 2 -a 0 -i 42 -k AGT
h -t 2.211300632 -s 1 -d -1 -p ack -e 40 -c 2 -a 0 -i 42 -k AGT
+ -t 2.211300632 -s 1 -d 0 -p ack -e 60 -c 2 -a 0 -i 42 -k RTR 
- -t 2.211300632 -s 1 -d 0 -p ack -e 60 -c 2 -a 0 -i 42 -k RTR
h -t 2.211300632 -s 1 -d 0 -p ack -e 60 -c 2 -a 0 -i 42 -k RTR
r -t 2.267948902 -s 1 -d 1 -p tcp -e 1060 -c 2 -a 0 -i 38 -k AGT
+ -t 2.267948902 -s 1 -d -1 -p ack -e 40 -c 2 -a 0 -i 43 -k AGT 
- -t 2.267948902 -s 1 -d -1 -p ack -e 40 -c 2 -a 0 -i 43 -k AGT
h -t 2.267948902 -s 1 -d -1 -p ack -e 40 -c 2 -a 0 -i 43 -k AGT
+ -t 2.267948902 -s 1 -d 0 -p ack -e 60 -c 2 -a 0 -i 43 -k RTR 
- -t 2.267948902 -s 1 -d 0 -p ack -e 60 -c 2 -a 0 -i 43 -k RTR
h -t 2.267948902 -s 1 -d 0 -p ack -e 60 -c 2 -a 0 -i 43 -k RTR
r -t 2.275357105 -s 0 -d 0 -p ack -e 60 -c 2 -a 0 -i 25 -k AGT
+ -t 2.275357105 -s 0 -d -1 -p tcp -e 1040 -c 2 -a 0 -i 44 -k AGT 
- -t 2.275357105 -s 0 -d -1 -p tcp -e 1040 -c 2 -a 0 -i 44 -k AGT
h -t 2.275357105 -s 0 -d -1 -p tcp -e 1040 -c 2 -a 0 -i 44 -k AGT
+ -t 2.275357105 -s 0 -d 1 -p tcp -e 1060 -c 2 -a 0 -i 44 -k RTR 
- -t 2.275357105 -s 0 -d 1 -p tcp -e 1060 -c 2 -a 0 -i 44 -k RTR
h -t 2.275357105 -s 0 -d 1 -p tcp -e 1060 -c 2 -a 0 -i 44 -k RTR
+ -t 2.275357105 -s 0 -d -1 -p tcp -e 1040 -c 2 -a 0 -i 45 -k AGT 
- -t 2.275357105 -s 0 -d -1 -p tcp -e 1040 -c 2 -a 0 -i 45 -k AGT
h -t 2.275357105 -s 0 -d -1 -p tcp -e 1040 -c 2 -a 0 -i 45 -k AGT
+ -t 2.275357105 -s 0 -d 1 -p tcp -e 1060 -c 2 -a 0 -i 45 -k RTR 
- -t 2.275357105 -s 0 -d 1 -p tcp -e 1060 -c 2 -a 0 -i 45 -k RTR
h -t 2.275357105 -s 0 -d 1 -p tcp -e 1060 -c 2 -a 0 -i 45 -k RTR
r -t 2.289145307 -s 1 -d 1 -p tcp -e 1060 -c 2 -a 0 -i 44 -k AGT
+ -t 2.289145307 -s 1 -d -1 -p ack -e 40 -c 2 -a 0 -i 46 -k AGT 
- -t 2.289145307 -s 1 -d -1 -p ack -e 40 -c 2 -a 0 -i 46 -k AGT
h -t 2.289145307 -s 1 -d -1 -p ack -e 40 -c 2 -a 0 -i 46 -k AGT
+ -t 2.289145307 -s 1 -d 0 -p ack -e 60 -c 2 -a 0 -i 46 -k RTR 
- -t 2.289145307 -s 1 -d 0 -p ack -e 60 -c 2 -a 0 -i 46 -k RTR
h -t 2.289145307 -s 1 -d 0 -p ack -e 60 -c 2 -a 0 -i 46 -k RTR
r -t 2.294633510 -s 0 -d 0 -p ack -e 60 -c 2 -a 0 -i 26 -k AGT
+ -t 2.294633510 -s 0 -d -1 -p tcp -e 1040 -c 2 -a 0 -i 47 -k AGT 
- -t 2.294633510 -s 0 -d -1 -p tcp -e 1040 -c 2 -a 0 -i 47 -k AGT
h -t 2.294633510 -s 0 -d -1 -p tcp -e 1040 -c 2 -a 0 -i 47 -k AGT
+ -t 2.294633510 -s 0 -d 1 -p tcp -e 1060 -c 2 -a 0 -i 47 -k RTR 
- -t 2.294633510 -s 0 -d 1 -p tcp -e 1060 -c 2 -a 0 -i 47 -k RTR
h -t 2.294633510 -s 0 -d 1 -p tcp -e 1060 -c 2 -a 0 -i 47 -k RTR
+ -t 2.294633510 -s 0 -d -1 -p tcp -e 1040 -c 2 -a 0 -i 48 -k AGT 
- -t 2.294633510 -s 0 -d -1 -p tcp -e 1040 -c 2 -a 0 -i 48 -k AGT
h -t 2.294633510 -s 0 -d -1 -p tcp -e 1040 -c 2 -a 0 -i 48 -k AGT
+ -t 2.294633510 -s 0 -d 1 -p tcp -e 1060 -c 2 -a 0 -i 48 -k RTR 
- -t 2.294633510 -s 0 -d 1 -p tcp -e 1060 -c 2 -a 0 -i 48 -k RTR
h -t 2.294633510 -s 0 -d 1 -p tcp -e 1060 -c 2 -a 0 -i 48 -k RTR
r -t 2.390733712 -s 1 -d 1 -p tcp -e 1060 -c 2 -a 0 -i 45 -k AGT
+ -t 2.390733712 -s 1 -d -1 -p ack -e 40 -c 2 -a 0 -i 49 -k AGT 
- -t 2.390733712 -s 1 -d -1 -p ack -e 40 -c 2 -a 0 -i 49 -k AGT
h -t 2.390733712 -s 1 -d -1 -p ack -e 40 -c 2 -a 0 -i 49 -k AGT
+ -t 2.390733712 -s 1 -d 0 -p ack -e 60 -c 2 -a 0 -i 49 -k RTR 
- -t 2.390733712 -s 1 -d 0 -p ack -e 60 -c 2 -a 0 -i 49 -k RTR
h -t 2.390733712 -s 1 -d 0 -p ack -e 60 -c 2 -a 0 -i 49 -k RTR
r -t 2.447701982 -s 1 -d 1 -p tcp -e 1060 -c 2 -a 0 -i 47 -k AGT
+ -t 2.447701982 -s 1 -d -1 -p ack -e 40 -c 2 -a 0 -i 50 -k AGT 
- -t 2.447701982 -s 1 -d -1 -p ack -e 40 -c 2 -a 0 -i 50 -k AGT
h -t 2.447701982 -s 1 -d -1 -p ack -e 40 -c 2 -a 0 -i 50 -k AGT
+ -t 2.447701982 -s 1 -d 0 -p ack -e 60 -c 2 -a 0 -i 50 -k RTR 
- -t 2.447701982 -s 1 -d 0 -p ack -e 60 -c 2 -a 0 -i 50 -k RTR
h -t 2.447701982 -s 1 -d 0 -p ack -e 60 -c 2 -a 0 -i 50 -k RTR
r -t 2.504170252 -s 1 -d 1 -p tcp -e 1060 -c 2 -a 0 -i 48 -k AGT
+ -t 2.504170252 -s 1 -d -1 -p ack -e 40 -c 2 -a 0 -i 51 -k AGT 
- -t 2.504170252 -s 1 -d -1 -p ack -e 40 -c 2 -a 0 -i 51 -k AGT
h -t 2.504170252 -s 1 -d -1 -p ack -e 40 -c 2 -a 0 -i 51 -k AGT
+ -t 2.504170252 -s 1 -d 0 -p ack -e 60 -c 2 -a 0 -i 51 -k RTR 
- -t 2.504170252 -s 1 -d 0 -p ack -e 60 -c 2 -a 0 -i 51 -k RTR
h -t 2.504170252 -s 1 -d 0 -p ack -e 60 -c 2 -a 0 -i 51 -k RTR
r -t 2.512098455 -s 0 -d 0 -p ack -e 60 -c 2 -a 0 -i 27 -k AGT
+ -t 2.512098455 -s 0 -d -1 -p tcp -e 1040 -c 2 -a 0 -i 52 -k AGT 
- -t 2.512098455 -s 0 -d -1 -p tcp -e 1040 -c 2 -a 0 -i 52 -k AGT
h -t 2.512098455 -s 0 -d -1 -p tcp -e 1040 -c 2 -a 0 -i 52 -k AGT
+ -t 2.512098455 -s 0 -d 1 -p tcp -e 1060 -c 2 -a 0 -i 52 -k RTR 
- -t 2.512098455 -s 0 -d 1 -p tcp -e 1060 -c 2 -a 0 -i 52 -k RTR
h -t 2.512098455 -s 0 -d 1 -p tcp -e 1060 -c 2 -a 0 -i 52 -k RTR
+ -t 2.512098455 -s 0 -d -1 -p tcp -e 1040 -c 2 -a 0 -i 53 -k AGT 
- -t 2.512098455 -s 0 -d -1 -p tcp -e 1040 -c 2 -a 0 -i 53 -k AGT
h -t 2.512098455 -s 0 -d -1 -p tcp -e 1040 -c 2 -a 0 -i 53 -k AGT
+ -t 2.512098455 -s 0 -d 1 -p tcp -e 1060 -c 2 -a 0 -i 53 -k RTR 
- -t 2.512098455 -s 0 -d 1 -p tcp -e 1060 -c 2 -a 0 -i 53 -k RTR
h -t 2.512098455 -s 0 -d 1 -p tcp -e 1060 -c 2 -a 0 -i 53 -k RTR
r -t 2.567502657 -s 1 -d 1 -p tcp -e 1060 -c 2 -a 0 -i 52 -k AGT
+ -t 2.567502657 -s 1 -d -1 -p ack -e 40 -c 2 -a 0 -i 54 -k AGT 
- -t 2.567502657 -s 1 -d -1 -p ack -e 40 -c 2 -a 0 -i 54 -k AGT
h -t 2.567502657 -s 1 -d -1 -p ack -e 40 -c 2 -a 0 -i 54 -k AGT
+ -t 2.567502657 -s 1 -d 0 -p ack -e 60 -c 2 -a 0 -i 54 -k RTR 
- -t 2.567502657 -s 1 -d 0 -p ack -e 60 -c 2 -a 0 -i 54 -k RTR
h -t 2.567502657 -s 1 -d 0 -p ack -e 60 -c 2 -a 0 -i 54 -k RTR
r -t 2.573130860 -s 0 -d 0 -p ack -e 60 -c 2 -a 0 -i 30 -k AGT
+ -t 2.573130860 -s 0 -d -1 -p tcp -e 1040 -c 2 -a 0 -i 55 -k AGT 
- -t 2.573130860 -s 0 -d -1 -p tcp -e 1040 -c 2 -a 0 -i 55 -k AGT
h -t 2.573130860 -s 0 -d -1 -p tcp -e 1040 -c 2 -a 0 -i 55 -k AGT
+ -t 2.573130860 -s 0 -d 1 -p tcp -e 1060 -c 2 -a 0 -i 55 -k RTR 
- -t 2.573130860 -s 0 -d 1 -p tcp -e 1060 -c 2 -a 0 -i 55 -k RTR
h -t 2.573130860 -s 0 -d 1 -p tcp -e 1060 -c 2 -a 0 -i 55 -k RTR
+ -t 2.573130860 -s 0 -d -1 -p tcp -e 1040 -c 2 -a 0 -i 56 -k AGT 
- -t 2.573130860 -s 0 -d -1 -p tcp -e 1040 -c 2 -a 0 -i 56 -k AGT
h -t 2.573130860 -s 0 -d -1 -p tcp -e 1040 -c 2 -a 0 -i 56 -k AGT
+ -t 2.573130860 -s 0 -d 1 -p tcp -e 1060 -c 2 -a 0 -i 56 -k RTR 
- -t 2.573130860 -s 0 -d 1 -p tcp -e 1060 -c 2 -a 0 -i 56 -k RTR
h -t 2.573130860 -s 0 -d 1 -p tcp -e 1060 -c 2 -a 0 -i 56 -k RTR
r -t 2.628075062 -s 1 -d 1 -p tcp -e 1060 -c 2 -a 0 -i 53 -k AGT
+ -t 2.628075062 -s 1 -d -1 -p ack -e 40 -c 2 -a 0 -i 57 -k AGT 
- -t 2.628075062 -s 1 -d -1 -p ack -e 40 -c 2 -a 0 -i 57 -k AGT
h -t 2.628075062 -s 1 -d -1 -p ack -e 40 -c 2 -a 0 -i 57 -k AGT
+ -t 2.628075062 -s 1 -d 0 -p ack -e 60 -c 2 -a 0 -i 57 -k RTR 
- -t 2.628075062 -s 1 -d 0 -p ack -e 60 -c 2 -a 0 -i 57 -k RTR
h -t 2.628075062 -s 1 -d 0 -p ack -e 60 -c 2 -a 0 -i 57 -k RTR
r -t 2.726199332 -s 1 -d 1 -p tcp -e 1060 -c 2 -a 0 -i 55 -k AGT
+ -t 2.726199332 -s 1 -d -1 -p ack -e 40 -c 2 -a 0 -i 58 -k AGT 
- -t 2.726199332 -s 1 -d -1 -p ack -e 40 -c 2 -a 0 -i 58 -k AGT
h -t 2.726199332 -s 1 -d -1 -p ack -e 40 -c 2 -a 0 -i 58 -k AGT
+ -t 2.726199332 -s 1 -d 0 -p ack -e 60 -c 2 -a 0 -i 58 -k RTR 
- -t 2.726199332 -s 1 -d 0 -p ack -e 60 -c 2 -a 0 -i 58 -k RTR
h -t 2.726199332 -s 1 -d 0 -p ack -e 60 -c 2 -a 0 -i 58 -k RTR
r -t 2.731947535 -s 0 -d 0 -p ack -e 60 -c 2 -a 0 -i 33 -k AGT
+ -t 2.731947535 -s 0 -d -1 -p tcp -e 1040 -c 2 -a 0 -i 59 -k AGT 
- -t 2.731947535 -s 0 -d -1 -p tcp -e 1040 -c 2 -a 0 -i 59 -k AGT
h -t 2.731947535 -s 0 -d -1 -p tcp -e 1040 -c 2 -a 0 -i 59 -k AGT
+ -t 2.731947535 -s 0 -d 1 -p tcp -e 1060 -c 2 -a 0 -i 59 -k RTR 
- -t 2.731947535 -s 0 -d 1 -p tcp -e 1060 -c 2 -a 0 -i 59 -k RTR
h -t 2.731947535 -s 0 -d 1 -p tcp -e 1060 -c 2 -a 0 -i 59 -k RTR
+ -t 2.731947535 -s 0 -d -1 -p tcp -e 1040 -c 2 -a 0 -i 60 -k AGT 
- -t 2.731947535 -s 0 -d -1 -p tcp -e 1040 -c 2 -a 0 -i 60 -k AGT
h -t 2.731947535 -s 0 -d -1 -p tcp -e 1040 -c 2 -a 0 -i 60 -k AGT
+ -t 2.731947535 -s 0 -d 1 -p tcp -e 1060 -c 2 -a 0 -i 60 -k RTR 
- -t 2.731947535 -s 0 -d 1 -p tcp -e 1060 -c 2 -a 0 -i 60 -k RTR
h -t 2.731947535 -s 0 -d 1 -p tcp -e 1060 -c 2 -a 0 -i 60 -k RTR
r -t 2.863727805 -s 0 -d 0 -p ack -e 60 -c 2 -a 0 -i 36 -k AGT
+ -t 2.863727805 -s 0 -d -1 -p tcp -e 1040 -c 2 -a 0 -i 61 -k AGT 
- -t 2.863727805 -s 0 -d -1 -p tcp -e 1040 -c 2 -a 0 -i 61 -k AGT
h -t 2.863727805 -s 0 -d -1 -p tcp -e 1040 -c 2 -a 0 -i 61 -k AGT
+ -t 2.863727805 -s 0 -d 1 -p tcp -e 1060 -c 2 -a 0 -i 61 -k RTR 
- -t 2.863727805 -s 0 -d 1 -p tcp -e 1060 -c 2 -a 0 -i 61 -k RTR
h -t 2.863727805 -s 0 -d 1 -p tcp -e 1060 -c 2 -a 0 -i 61 -k RTR
+ -t 2.863727805 -s 0 -d -1 -p tcp -e 1040 -c 2 -a 0 -i 62 -k AGT 
- -t 2.863727805 -s 0 -d -1 -p tcp -e 1040 -c 2 -a 0 -i 62 -k AGT
h -t 2.863727805 -s 0 -d -1 -p tcp -e 1040 -c 2 -a 0 -i 62 -k AGT
+ -t 2.863727805 -s 0 -d 1 -p tcp -e 1060 -c 2 -a 0 -i 62 -k RTR 
- -t 2.863727805 -s 0 -d 1 -p tcp -e 1060 -c 2 -a 0 -i 62 -k RTR
h -t 2.863727805 -s 0 -d 1 -p tcp -e 1060 -c 2 -a 0 -i 62 -k RTR
r -t 2.912356075 -s 0 -d 0 -p ack -e 60 -c 2 -a 0 -i 39 -k AGT
+ -t 2.912356075 -s 0 -d -1 -p tcp -e 1040 -c 2 -a 0 -i 63 -k AGT 
- -t 2.912356075 -s 0 -d -1 -p tcp -e 1040 -c 2 -a 0 -i 63 -k AGT
h -t 2.912356075 -s 0 -d -1 -p tcp -e 1040 -c 2 -a 0 -i 63 -k AGT
+ -t 2.912356075 -s 0 -d 1 -p tcp -e 1060 -c 2 -a 0 -i 63 -k RTR 
- -t 2.912356075 -s 0 -d 1 -p tcp -e 1060 -c 2 -a 0 -i 63 -k RTR
h -t 2.912356075 -s 0 -d 1 -p tcp -e 1060 -c 2 -a 0 -i 63 -k RTR
+ -t 2.912356075 -s 0 -d -1 -p tcp -e 1040 -c 2 -a 0 -i 64 -k AGT 
- -t 2.912356075 -s 0 -d -1 -p tcp -e 1040 -c 2 -a 0 -i 64 -k AGT
h -t 2.912356075 -s 0 -d -1 -p tcp -e 1040 -c 2 -a 0 -i 64 -k AGT
+ -t 2.912356075 -s 0 -d 1 -p tcp -e 1060 -c 2 -a 0 -i 64 -k RTR 
- -t 2.912356075 -s 0 -d 1 -p tcp -e 1060 -c 2 -a 0 -i 64 -k RTR
h -t 2.912356075 -s 0 -d 1 -p tcp -e 1060 -c 2 -a 0 -i 64 -k RTR
r -t 2.960984345 -s 0 -d 0 -p ack -e 60 -c 2 -a 0 -i 40 -k AGT
+ -t 2.960984345 -s 0 -d -1 -p tcp -e 1040 -c 2 -a 0 -i 65 -k AGT 
- -t 2.960984345 -s 0 -d -1 -p tcp -e 1040 -c 2 -a 0 -i 65 -k AGT
h -t 2.960984345 -s 0 -d -1 -p tcp -e 1040 -c 2 -a 0 -i 65 -k AGT
+ -t 2.960984345 -s 0 -d 1 -p tcp -e 1060 -c 2 -a 0 -i 65 -k RTR 
- -t 2.960984345 -s 0 -d 1 -p tcp -e 1060 -c 2 -a 0 -i 65 -k RTR
h -t 2.960984345 -s 0 -d 1 -p tcp -e 1060 -c 2 -a 0 -i 65 -k RTR
+ -t 2.960984345 -s 0 -d -1 -p tcp -e 1040 -c 2 -a 0 -i 66 -k AGT 
- -t 2.960984345 -s 0 -d -1 -p tcp -e 1040 -c 2 -a 0 -i 66 -k AGT
h -t 2.960984345 -s 0 -d -1 -p tcp -e 1040 -c 2 -a 0 -i 66 -k AGT
+ -t 2.960984345 -s 0 -d 1 -p tcp -e 1060 -c 2 -a 0 -i 66 -k RTR 
- -t 2.960984345 -s 0 -d 1 -p tcp -e 1060 -c 2 -a 0 -i 66 -k RTR
h -t 2.960984345 -s 0 -d 1 -p tcp -e 1060 -c 2 -a 0 -i 66 -k RTR
r -t 2.967836615 -s 0 -d 0 -p ack -e 60 -c 2 -a 0 -i 41 -k AGT
+ -t 2.967836615 -s 0 -d -1 -p tcp -e 1040 -c 2 -a 0 -i 67 -k AGT 
- -t 2.967836615 -s 0 -d -1 -p tcp -e 1040 -c 2 -a 0 -i 67 -k AGT
h -t 2.967836615 -s 0 -d -1 -p tcp -e 1040 -c 2 -a 0 -i 67 -k AGT
+ -t 2.967836615 -s 0 -d 1 -p tcp -e 1060 -c 2 -a 0 -i 67 -k RTR 
- -t 2.967836615 -s 0 -d 1 -p tcp -e 1060 -c 2 -a 0 -i 67 -k RTR
h -t 2.967836615 -s 0 -d 1 -p tcp -e 1060 -c 2 -a 0 -i 67 -k RTR
+ -t 2.967836615 -s 0 -d -1 -p tcp -e 1040 -c 2 -a 0 -i 68 -k AGT 
- -t 2.967836615 -s 0 -d -1 -p tcp -e 1040 -c 2 -a 0 -i 68 -k AGT
h -t 2.967836615 -s 0 -d -1 -p tcp -e 1040 -c 2 -a 0 -i 68 -k AGT
+ -t 2.967836615 -s 0 -d 1 -p tcp -e 1060 -c 2 -a 0 -i 68 -k RTR 
- -t 2.967836615 -s 0 -d 1 -p tcp -e 1060 -c 2 -a 0 -i 68 -k RTR
h -t 2.967836615 -s 0 -d 1 -p tcp -e 1060 -c 2 -a 0 -i 68 -k RTR
r -t 2.974648885 -s 0 -d 0 -p ack -e 60 -c 2 -a 0 -i 42 -k AGT
+ -t 2.974648885 -s 0 -d -1 -p tcp -e 1040 -c 2 -a 0 -i 69 -k AGT 